n -t * -s 0  -x 0 -y 0 -Z 0 -z 3  -v circle -c green
n -t * -s 1  -x 0 -y 0 -Z 0 -z 3  -v circle -c green
n -t * -s 2  -x 0 -y 0 -Z 0 -z 3  -v circle -c green
n -t * -s 3  -x 0 -y 0 -Z 0 -z 3  -v circle -c green
n -t * -s 4  -x 0 -y 0 -Z 0 -z 3  -v circle -c green
n -t * -s 5  -x 0 -y 0 -Z 0 -z 3  -v circle -c green
n -t * -s 6  -x 0 -y 0 -Z 0 -z 3  -v circle -c green
n -t * -s 7  -x 0 -y 0 -Z 0 -z 3  -v circle -c green
n -t * -s 8  -x 0 -y 0 -Z 0 -z 3  -v circle -c green
n -t * -s 9  -x 0 -y 0 -Z 0 -z 3  -v circle -c green
n -t * -s 10  -x 0 -y 0 -Z 0 -z 3  -v circle -c green
n -t * -s 11  -x 0 -y 0 -Z 0 -z 3  -v circle -c green
n -t * -s 12  -x 0 -y 0 -Z 0 -z 3  -v circle -c green
n -t * -s 13  -x 0 -y 0 -Z 0 -z 3  -v circle -c green
n -t * -s 14  -x 0 -y 0 -Z 0 -z 3  -v circle -c green
n -t * -s 15  -x 0 -y 0 -Z 0 -z 3  -v circle -c green
n -t * -s 16  -x 0 -y 0 -Z 0 -z 3  -v circle -c green
n -t * -s 17  -x 0 -y 0 -Z 0 -z 3  -v circle -c green
n -t * -s 18  -x 0 -y 0 -Z 0 -z 3  -v circle -c green
n -t * -s 19  -x 0 -y 0 -Z 0 -z 3  -v circle -c green
V -t * -v 1.0a5 -a 0
W -t * -x 50 -y 50
A -t * -n 1 -p 0 -o 0x7fffffff -c 30 -a 1
A -t * -h 1 -m 1073741823 -s 0
+ -t 3.500000000 -s 0 -d -1 -p cbr -e 500 -c 2 -a 0 -i 0 -k AGT 
- -t 3.500000000 -s 0 -d -1 -p cbr -e 500 -c 2 -a 0 -i 0 -k AGT
h -t 3.500000000 -s 0 -d -1 -p cbr -e 500 -c 2 -a 0 -i 0 -k AGT
+ -t 3.500000000 -s 0 -d -1 -p AODV -e 48 -c 2 -a 0 -i 0 -k RTR 
- -t 3.500000000 -s 0 -d -1 -p AODV -e 48 -c 2 -a 0 -i 0 -k RTR
h -t 3.500000000 -s 0 -d -1 -p AODV -e 48 -c 2 -a 0 -i 0 -k RTR
+ -t 3.500535000 -s 0 -d -1 -p AODV -e 106 -c 2 -a 0 -i 0 -k MAC 
- -t 3.500535000 -s 0 -d -1 -p AODV -e 106 -c 2 -a 0 -i 0 -k MAC
h -t 3.500535000 -s 0 -d -1 -p AODV -e 106 -c 2 -a 0 -i 0 -k MAC
r -t 3.501383000 -s 1 -d -1 -p AODV -e 48 -c 2 -a 0 -i 0 -k MAC
r -t 3.501383000 -s 2 -d -1 -p AODV -e 48 -c 2 -a 0 -i 0 -k MAC
r -t 3.501383000 -s 3 -d -1 -p AODV -e 48 -c 2 -a 0 -i 0 -k MAC
r -t 3.501383000 -s 4 -d -1 -p AODV -e 48 -c 2 -a 0 -i 0 -k MAC
r -t 3.501383000 -s 5 -d -1 -p AODV -e 48 -c 2 -a 0 -i 0 -k MAC
r -t 3.501383000 -s 6 -d -1 -p AODV -e 48 -c 2 -a 0 -i 0 -k MAC
r -t 3.501383000 -s 7 -d -1 -p AODV -e 48 -c 2 -a 0 -i 0 -k MAC
r -t 3.501383000 -s 8 -d -1 -p AODV -e 48 -c 2 -a 0 -i 0 -k MAC
r -t 3.501383000 -s 9 -d -1 -p AODV -e 48 -c 2 -a 0 -i 0 -k MAC
r -t 3.501383000 -s 10 -d -1 -p AODV -e 48 -c 2 -a 0 -i 0 -k MAC
r -t 3.501383000 -s 11 -d -1 -p AODV -e 48 -c 2 -a 0 -i 0 -k MAC
r -t 3.501383000 -s 12 -d -1 -p AODV -e 48 -c 2 -a 0 -i 0 -k MAC
r -t 3.501383000 -s 13 -d -1 -p AODV -e 48 -c 2 -a 0 -i 0 -k MAC
r -t 3.501383000 -s 14 -d -1 -p AODV -e 48 -c 2 -a 0 -i 0 -k MAC
r -t 3.501383000 -s 15 -d -1 -p AODV -e 48 -c 2 -a 0 -i 0 -k MAC
r -t 3.501383000 -s 16 -d -1 -p AODV -e 48 -c 2 -a 0 -i 0 -k MAC
r -t 3.501383000 -s 17 -d -1 -p AODV -e 48 -c 2 -a 0 -i 0 -k MAC
r -t 3.501383000 -s 18 -d -1 -p AODV -e 48 -c 2 -a 0 -i 0 -k MAC
r -t 3.501383000 -s 19 -d -1 -p AODV -e 48 -c 2 -a 0 -i 0 -k MAC
r -t 3.501408000 -s 1 -d -1 -p AODV -e 48 -c 2 -a 0 -i 0 -k RTR
r -t 3.501408000 -s 2 -d -1 -p AODV -e 48 -c 2 -a 0 -i 0 -k RTR
r -t 3.501408000 -s 3 -d -1 -p AODV -e 48 -c 2 -a 0 -i 0 -k RTR
r -t 3.501408000 -s 4 -d -1 -p AODV -e 48 -c 2 -a 0 -i 0 -k RTR
r -t 3.501408000 -s 5 -d -1 -p AODV -e 48 -c 2 -a 0 -i 0 -k RTR
r -t 3.501408000 -s 6 -d -1 -p AODV -e 48 -c 2 -a 0 -i 0 -k RTR
r -t 3.501408000 -s 7 -d -1 -p AODV -e 48 -c 2 -a 0 -i 0 -k RTR
r -t 3.501408000 -s 8 -d -1 -p AODV -e 48 -c 2 -a 0 -i 0 -k RTR
r -t 3.501408000 -s 9 -d -1 -p AODV -e 48 -c 2 -a 0 -i 0 -k RTR
r -t 3.501408000 -s 10 -d -1 -p AODV -e 48 -c 2 -a 0 -i 0 -k RTR
r -t 3.501408000 -s 11 -d -1 -p AODV -e 48 -c 2 -a 0 -i 0 -k RTR
r -t 3.501408000 -s 12 -d -1 -p AODV -e 48 -c 2 -a 0 -i 0 -k RTR
r -t 3.501408000 -s 13 -d -1 -p AODV -e 48 -c 2 -a 0 -i 0 -k RTR
r -t 3.501408000 -s 14 -d -1 -p AODV -e 48 -c 2 -a 0 -i 0 -k RTR
r -t 3.501408000 -s 15 -d -1 -p AODV -e 48 -c 2 -a 0 -i 0 -k RTR
r -t 3.501408000 -s 16 -d -1 -p AODV -e 48 -c 2 -a 0 -i 0 -k RTR
r -t 3.501408000 -s 17 -d -1 -p AODV -e 48 -c 2 -a 0 -i 0 -k RTR
r -t 3.501408000 -s 18 -d -1 -p AODV -e 48 -c 2 -a 0 -i 0 -k RTR
r -t 3.501408000 -s 19 -d -1 -p AODV -e 48 -c 2 -a 0 -i 0 -k RTR
+ -t 3.501408000 -s 19 -d 0 -p AODV -e 44 -c 2 -a 0 -i 0 -k RTR 
- -t 3.501408000 -s 19 -d 0 -p AODV -e 44 -c 2 -a 0 -i 0 -k RTR
h -t 3.501408000 -s 19 -d 0 -p AODV -e 44 -c 2 -a 0 -i 0 -k RTR
+ -t 3.501550047 -s 1 -d -1 -p AODV -e 48 -c 2 -a 0 -i 0 -k RTR 
- -t 3.501550047 -s 1 -d -1 -p AODV -e 48 -c 2 -a 0 -i 0 -k RTR
h -t 3.501550047 -s 1 -d -1 -p AODV -e 48 -c 2 -a 0 -i 0 -k RTR
+ -t 3.501783000 -s 19 -d -1 -p ARP -e 86 -c 2 -a 0 -i 0 -k MAC 
- -t 3.501783000 -s 19 -d -1 -p ARP -e 86 -c 2 -a 0 -i 0 -k MAC
h -t 3.501783000 -s 19 -d -1 -p ARP -e 86 -c 2 -a 0 -i 0 -k MAC
+ -t 3.501835946 -s 12 -d -1 -p AODV -e 48 -c 2 -a 0 -i 0 -k RTR 
- -t 3.501835946 -s 12 -d -1 -p AODV -e 48 -c 2 -a 0 -i 0 -k RTR
h -t 3.501835946 -s 12 -d -1 -p AODV -e 48 -c 2 -a 0 -i 0 -k RTR
+ -t 3.502289227 -s 2 -d -1 -p AODV -e 48 -c 2 -a 0 -i 0 -k RTR 
- -t 3.502289227 -s 2 -d -1 -p AODV -e 48 -c 2 -a 0 -i 0 -k RTR
h -t 3.502289227 -s 2 -d -1 -p AODV -e 48 -c 2 -a 0 -i 0 -k RTR
+ -t 3.502349389 -s 18 -d -1 -p AODV -e 48 -c 2 -a 0 -i 0 -k RTR 
- -t 3.502349389 -s 18 -d -1 -p AODV -e 48 -c 2 -a 0 -i 0 -k RTR
h -t 3.502349389 -s 18 -d -1 -p AODV -e 48 -c 2 -a 0 -i 0 -k RTR
r -t 3.502471000 -s 18 -d -1 -p ARP -e 28 -c 2 -a 0 -i 0 -k MAC
r -t 3.502471000 -s 17 -d -1 -p ARP -e 28 -c 2 -a 0 -i 0 -k MAC
r -t 3.502471000 -s 16 -d -1 -p ARP -e 28 -c 2 -a 0 -i 0 -k MAC
r -t 3.502471000 -s 15 -d -1 -p ARP -e 28 -c 2 -a 0 -i 0 -k MAC
r -t 3.502471000 -s 14 -d -1 -p ARP -e 28 -c 2 -a 0 -i 0 -k MAC
r -t 3.502471000 -s 13 -d -1 -p ARP -e 28 -c 2 -a 0 -i 0 -k MAC
r -t 3.502471000 -s 12 -d -1 -p ARP -e 28 -c 2 -a 0 -i 0 -k MAC
r -t 3.502471000 -s 11 -d -1 -p ARP -e 28 -c 2 -a 0 -i 0 -k MAC
r -t 3.502471000 -s 10 -d -1 -p ARP -e 28 -c 2 -a 0 -i 0 -k MAC
r -t 3.502471000 -s 9 -d -1 -p ARP -e 28 -c 2 -a 0 -i 0 -k MAC
r -t 3.502471000 -s 8 -d -1 -p ARP -e 28 -c 2 -a 0 -i 0 -k MAC
r -t 3.502471000 -s 7 -d -1 -p ARP -e 28 -c 2 -a 0 -i 0 -k MAC
r -t 3.502471000 -s 6 -d -1 -p ARP -e 28 -c 2 -a 0 -i 0 -k MAC
r -t 3.502471000 -s 5 -d -1 -p ARP -e 28 -c 2 -a 0 -i 0 -k MAC
r -t 3.502471000 -s 4 -d -1 -p ARP -e 28 -c 2 -a 0 -i 0 -k MAC
r -t 3.502471000 -s 3 -d -1 -p ARP -e 28 -c 2 -a 0 -i 0 -k MAC
r -t 3.502471000 -s 2 -d -1 -p ARP -e 28 -c 2 -a 0 -i 0 -k MAC
r -t 3.502471000 -s 1 -d -1 -p ARP -e 28 -c 2 -a 0 -i 0 -k MAC
r -t 3.502471000 -s 0 -d -1 -p ARP -e 28 -c 2 -a 0 -i 0 -k MAC
+ -t 3.502541000 -s 2 -d -1 -p AODV -e 106 -c 2 -a 0 -i 0 -k MAC 
- -t 3.502541000 -s 2 -d -1 -p AODV -e 106 -c 2 -a 0 -i 0 -k MAC
h -t 3.502541000 -s 2 -d -1 -p AODV -e 106 -c 2 -a 0 -i 0 -k MAC
+ -t 3.502546082 -s 14 -d -1 -p AODV -e 48 -c 2 -a 0 -i 0 -k RTR 
- -t 3.502546082 -s 14 -d -1 -p AODV -e 48 -c 2 -a 0 -i 0 -k RTR
h -t 3.502546082 -s 14 -d -1 -p AODV -e 48 -c 2 -a 0 -i 0 -k RTR
+ -t 3.503049454 -s 11 -d -1 -p AODV -e 48 -c 2 -a 0 -i 0 -k RTR 
- -t 3.503049454 -s 11 -d -1 -p AODV -e 48 -c 2 -a 0 -i 0 -k RTR
h -t 3.503049454 -s 11 -d -1 -p AODV -e 48 -c 2 -a 0 -i 0 -k RTR
+ -t 3.503156053 -s 17 -d -1 -p AODV -e 48 -c 2 -a 0 -i 0 -k RTR 
- -t 3.503156053 -s 17 -d -1 -p AODV -e 48 -c 2 -a 0 -i 0 -k RTR
h -t 3.503156053 -s 17 -d -1 -p AODV -e 48 -c 2 -a 0 -i 0 -k RTR
r -t 3.503389000 -s 1 -d -1 -p AODV -e 48 -c 2 -a 0 -i 0 -k MAC
r -t 3.503389000 -s 0 -d -1 -p AODV -e 48 -c 2 -a 0 -i 0 -k MAC
r -t 3.503389000 -s 3 -d -1 -p AODV -e 48 -c 2 -a 0 -i 0 -k MAC
r -t 3.503389000 -s 4 -d -1 -p AODV -e 48 -c 2 -a 0 -i 0 -k MAC
r -t 3.503389000 -s 5 -d -1 -p AODV -e 48 -c 2 -a 0 -i 0 -k MAC
r -t 3.503389000 -s 6 -d -1 -p AODV -e 48 -c 2 -a 0 -i 0 -k MAC
r -t 3.503389000 -s 7 -d -1 -p AODV -e 48 -c 2 -a 0 -i 0 -k MAC
r -t 3.503389000 -s 8 -d -1 -p AODV -e 48 -c 2 -a 0 -i 0 -k MAC
r -t 3.503389000 -s 9 -d -1 -p AODV -e 48 -c 2 -a 0 -i 0 -k MAC
r -t 3.503389000 -s 10 -d -1 -p AODV -e 48 -c 2 -a 0 -i 0 -k MAC
r -t 3.503389000 -s 11 -d -1 -p AODV -e 48 -c 2 -a 0 -i 0 -k MAC
r -t 3.503389000 -s 12 -d -1 -p AODV -e 48 -c 2 -a 0 -i 0 -k MAC
r -t 3.503389000 -s 13 -d -1 -p AODV -e 48 -c 2 -a 0 -i 0 -k MAC
r -t 3.503389000 -s 14 -d -1 -p AODV -e 48 -c 2 -a 0 -i 0 -k MAC
r -t 3.503389000 -s 15 -d -1 -p AODV -e 48 -c 2 -a 0 -i 0 -k MAC
r -t 3.503389000 -s 16 -d -1 -p AODV -e 48 -c 2 -a 0 -i 0 -k MAC
r -t 3.503389000 -s 17 -d -1 -p AODV -e 48 -c 2 -a 0 -i 0 -k MAC
r -t 3.503389000 -s 18 -d -1 -p AODV -e 48 -c 2 -a 0 -i 0 -k MAC
r -t 3.503389000 -s 19 -d -1 -p AODV -e 48 -c 2 -a 0 -i 0 -k MAC
r -t 3.503414000 -s 1 -d -1 -p AODV -e 48 -c 2 -a 0 -i 0 -k RTR
r -t 3.503414000 -s 0 -d -1 -p AODV -e 48 -c 2 -a 0 -i 0 -k RTR
r -t 3.503414000 -s 3 -d -1 -p AODV -e 48 -c 2 -a 0 -i 0 -k RTR
r -t 3.503414000 -s 4 -d -1 -p AODV -e 48 -c 2 -a 0 -i 0 -k RTR
r -t 3.503414000 -s 5 -d -1 -p AODV -e 48 -c 2 -a 0 -i 0 -k RTR
r -t 3.503414000 -s 6 -d -1 -p AODV -e 48 -c 2 -a 0 -i 0 -k RTR
r -t 3.503414000 -s 7 -d -1 -p AODV -e 48 -c 2 -a 0 -i 0 -k RTR
r -t 3.503414000 -s 8 -d -1 -p AODV -e 48 -c 2 -a 0 -i 0 -k RTR
r -t 3.503414000 -s 9 -d -1 -p AODV -e 48 -c 2 -a 0 -i 0 -k RTR
r -t 3.503414000 -s 10 -d -1 -p AODV -e 48 -c 2 -a 0 -i 0 -k RTR
r -t 3.503414000 -s 11 -d -1 -p AODV -e 48 -c 2 -a 0 -i 0 -k RTR
r -t 3.503414000 -s 12 -d -1 -p AODV -e 48 -c 2 -a 0 -i 0 -k RTR
r -t 3.503414000 -s 13 -d -1 -p AODV -e 48 -c 2 -a 0 -i 0 -k RTR
r -t 3.503414000 -s 14 -d -1 -p AODV -e 48 -c 2 -a 0 -i 0 -k RTR
r -t 3.503414000 -s 15 -d -1 -p AODV -e 48 -c 2 -a 0 -i 0 -k RTR
r -t 3.503414000 -s 16 -d -1 -p AODV -e 48 -c 2 -a 0 -i 0 -k RTR
r -t 3.503414000 -s 17 -d -1 -p AODV -e 48 -c 2 -a 0 -i 0 -k RTR
r -t 3.503414000 -s 18 -d -1 -p AODV -e 48 -c 2 -a 0 -i 0 -k RTR
r -t 3.503414000 -s 19 -d -1 -p AODV -e 48 -c 2 -a 0 -i 0 -k RTR
+ -t 3.503479000 -s 1 -d -1 -p AODV -e 106 -c 2 -a 0 -i 0 -k MAC 
- -t 3.503479000 -s 1 -d -1 -p AODV -e 106 -c 2 -a 0 -i 0 -k MAC
h -t 3.503479000 -s 1 -d -1 -p AODV -e 106 -c 2 -a 0 -i 0 -k MAC
+ -t 3.503754018 -s 7 -d -1 -p AODV -e 48 -c 2 -a 0 -i 0 -k RTR 
- -t 3.503754018 -s 7 -d -1 -p AODV -e 48 -c 2 -a 0 -i 0 -k RTR
h -t 3.503754018 -s 7 -d -1 -p AODV -e 48 -c 2 -a 0 -i 0 -k RTR
r -t 3.504327000 -s 0 -d -1 -p AODV -e 48 -c 2 -a 0 -i 0 -k MAC
r -t 3.504327000 -s 2 -d -1 -p AODV -e 48 -c 2 -a 0 -i 0 -k MAC
r -t 3.504327000 -s 3 -d -1 -p AODV -e 48 -c 2 -a 0 -i 0 -k MAC
r -t 3.504327000 -s 4 -d -1 -p AODV -e 48 -c 2 -a 0 -i 0 -k MAC
r -t 3.504327000 -s 5 -d -1 -p AODV -e 48 -c 2 -a 0 -i 0 -k MAC
r -t 3.504327000 -s 6 -d -1 -p AODV -e 48 -c 2 -a 0 -i 0 -k MAC
r -t 3.504327000 -s 7 -d -1 -p AODV -e 48 -c 2 -a 0 -i 0 -k MAC
r -t 3.504327000 -s 8 -d -1 -p AODV -e 48 -c 2 -a 0 -i 0 -k MAC
r -t 3.504327000 -s 9 -d -1 -p AODV -e 48 -c 2 -a 0 -i 0 -k MAC
r -t 3.504327000 -s 10 -d -1 -p AODV -e 48 -c 2 -a 0 -i 0 -k MAC
r -t 3.504327000 -s 11 -d -1 -p AODV -e 48 -c 2 -a 0 -i 0 -k MAC
r -t 3.504327000 -s 12 -d -1 -p AODV -e 48 -c 2 -a 0 -i 0 -k MAC
r -t 3.504327000 -s 13 -d -1 -p AODV -e 48 -c 2 -a 0 -i 0 -k MAC
r -t 3.504327000 -s 14 -d -1 -p AODV -e 48 -c 2 -a 0 -i 0 -k MAC
r -t 3.504327000 -s 15 -d -1 -p AODV -e 48 -c 2 -a 0 -i 0 -k MAC
r -t 3.504327000 -s 16 -d -1 -p AODV -e 48 -c 2 -a 0 -i 0 -k MAC
r -t 3.504327000 -s 17 -d -1 -p AODV -e 48 -c 2 -a 0 -i 0 -k MAC
r -t 3.504327000 -s 18 -d -1 -p AODV -e 48 -c 2 -a 0 -i 0 -k MAC
r -t 3.504327000 -s 19 -d -1 -p AODV -e 48 -c 2 -a 0 -i 0 -k MAC
r -t 3.504352000 -s 0 -d -1 -p AODV -e 48 -c 2 -a 0 -i 0 -k RTR
r -t 3.504352000 -s 2 -d -1 -p AODV -e 48 -c 2 -a 0 -i 0 -k RTR
r -t 3.504352000 -s 3 -d -1 -p AODV -e 48 -c 2 -a 0 -i 0 -k RTR
r -t 3.504352000 -s 4 -d -1 -p AODV -e 48 -c 2 -a 0 -i 0 -k RTR
r -t 3.504352000 -s 5 -d -1 -p AODV -e 48 -c 2 -a 0 -i 0 -k RTR
r -t 3.504352000 -s 6 -d -1 -p AODV -e 48 -c 2 -a 0 -i 0 -k RTR
r -t 3.504352000 -s 7 -d -1 -p AODV -e 48 -c 2 -a 0 -i 0 -k RTR
r -t 3.504352000 -s 8 -d -1 -p AODV -e 48 -c 2 -a 0 -i 0 -k RTR
r -t 3.504352000 -s 9 -d -1 -p AODV -e 48 -c 2 -a 0 -i 0 -k RTR
r -t 3.504352000 -s 10 -d -1 -p AODV -e 48 -c 2 -a 0 -i 0 -k RTR
r -t 3.504352000 -s 11 -d -1 -p AODV -e 48 -c 2 -a 0 -i 0 -k RTR
r -t 3.504352000 -s 12 -d -1 -p AODV -e 48 -c 2 -a 0 -i 0 -k RTR
r -t 3.504352000 -s 13 -d -1 -p AODV -e 48 -c 2 -a 0 -i 0 -k RTR
r -t 3.504352000 -s 14 -d -1 -p AODV -e 48 -c 2 -a 0 -i 0 -k RTR
r -t 3.504352000 -s 15 -d -1 -p AODV -e 48 -c 2 -a 0 -i 0 -k RTR
r -t 3.504352000 -s 16 -d -1 -p AODV -e 48 -c 2 -a 0 -i 0 -k RTR
r -t 3.504352000 -s 17 -d -1 -p AODV -e 48 -c 2 -a 0 -i 0 -k RTR
r -t 3.504352000 -s 18 -d -1 -p AODV -e 48 -c 2 -a 0 -i 0 -k RTR
r -t 3.504352000 -s 19 -d -1 -p AODV -e 48 -c 2 -a 0 -i 0 -k RTR
+ -t 3.504417000 -s 7 -d -1 -p AODV -e 106 -c 2 -a 0 -i 0 -k MAC 
- -t 3.504417000 -s 7 -d -1 -p AODV -e 106 -c 2 -a 0 -i 0 -k MAC
h -t 3.504417000 -s 7 -d -1 -p AODV -e 106 -c 2 -a 0 -i 0 -k MAC
+ -t 3.504498791 -s 9 -d -1 -p AODV -e 48 -c 2 -a 0 -i 0 -k RTR 
- -t 3.504498791 -s 9 -d -1 -p AODV -e 48 -c 2 -a 0 -i 0 -k RTR
h -t 3.504498791 -s 9 -d -1 -p AODV -e 48 -c 2 -a 0 -i 0 -k RTR
+ -t 3.504537618 -s 5 -d -1 -p AODV -e 48 -c 2 -a 0 -i 0 -k RTR 
- -t 3.504537618 -s 5 -d -1 -p AODV -e 48 -c 2 -a 0 -i 0 -k RTR
h -t 3.504537618 -s 5 -d -1 -p AODV -e 48 -c 2 -a 0 -i 0 -k RTR
r -t 3.505265000 -s 6 -d -1 -p AODV -e 48 -c 2 -a 0 -i 0 -k MAC
r -t 3.505265000 -s 5 -d -1 -p AODV -e 48 -c 2 -a 0 -i 0 -k MAC
r -t 3.505265000 -s 4 -d -1 -p AODV -e 48 -c 2 -a 0 -i 0 -k MAC
r -t 3.505265000 -s 3 -d -1 -p AODV -e 48 -c 2 -a 0 -i 0 -k MAC
r -t 3.505265000 -s 2 -d -1 -p AODV -e 48 -c 2 -a 0 -i 0 -k MAC
r -t 3.505265000 -s 1 -d -1 -p AODV -e 48 -c 2 -a 0 -i 0 -k MAC
r -t 3.505265000 -s 0 -d -1 -p AODV -e 48 -c 2 -a 0 -i 0 -k MAC
r -t 3.505265000 -s 8 -d -1 -p AODV -e 48 -c 2 -a 0 -i 0 -k MAC
r -t 3.505265000 -s 9 -d -1 -p AODV -e 48 -c 2 -a 0 -i 0 -k MAC
r -t 3.505265000 -s 10 -d -1 -p AODV -e 48 -c 2 -a 0 -i 0 -k MAC
r -t 3.505265000 -s 11 -d -1 -p AODV -e 48 -c 2 -a 0 -i 0 -k MAC
r -t 3.505265000 -s 12 -d -1 -p AODV -e 48 -c 2 -a 0 -i 0 -k MAC
r -t 3.505265000 -s 13 -d -1 -p AODV -e 48 -c 2 -a 0 -i 0 -k MAC
r -t 3.505265000 -s 14 -d -1 -p AODV -e 48 -c 2 -a 0 -i 0 -k MAC
r -t 3.505265000 -s 15 -d -1 -p AODV -e 48 -c 2 -a 0 -i 0 -k MAC
r -t 3.505265000 -s 16 -d -1 -p AODV -e 48 -c 2 -a 0 -i 0 -k MAC
r -t 3.505265000 -s 17 -d -1 -p AODV -e 48 -c 2 -a 0 -i 0 -k MAC
r -t 3.505265000 -s 18 -d -1 -p AODV -e 48 -c 2 -a 0 -i 0 -k MAC
r -t 3.505265000 -s 19 -d -1 -p AODV -e 48 -c 2 -a 0 -i 0 -k MAC
r -t 3.505290000 -s 6 -d -1 -p AODV -e 48 -c 2 -a 0 -i 0 -k RTR
r -t 3.505290000 -s 5 -d -1 -p AODV -e 48 -c 2 -a 0 -i 0 -k RTR
r -t 3.505290000 -s 4 -d -1 -p AODV -e 48 -c 2 -a 0 -i 0 -k RTR
r -t 3.505290000 -s 3 -d -1 -p AODV -e 48 -c 2 -a 0 -i 0 -k RTR
r -t 3.505290000 -s 2 -d -1 -p AODV -e 48 -c 2 -a 0 -i 0 -k RTR
r -t 3.505290000 -s 1 -d -1 -p AODV -e 48 -c 2 -a 0 -i 0 -k RTR
r -t 3.505290000 -s 0 -d -1 -p AODV -e 48 -c 2 -a 0 -i 0 -k RTR
r -t 3.505290000 -s 8 -d -1 -p AODV -e 48 -c 2 -a 0 -i 0 -k RTR
r -t 3.505290000 -s 9 -d -1 -p AODV -e 48 -c 2 -a 0 -i 0 -k RTR
r -t 3.505290000 -s 10 -d -1 -p AODV -e 48 -c 2 -a 0 -i 0 -k RTR
r -t 3.505290000 -s 11 -d -1 -p AODV -e 48 -c 2 -a 0 -i 0 -k RTR
r -t 3.505290000 -s 12 -d -1 -p AODV -e 48 -c 2 -a 0 -i 0 -k RTR
r -t 3.505290000 -s 13 -d -1 -p AODV -e 48 -c 2 -a 0 -i 0 -k RTR
r -t 3.505290000 -s 14 -d -1 -p AODV -e 48 -c 2 -a 0 -i 0 -k RTR
r -t 3.505290000 -s 15 -d -1 -p AODV -e 48 -c 2 -a 0 -i 0 -k RTR
r -t 3.505290000 -s 16 -d -1 -p AODV -e 48 -c 2 -a 0 -i 0 -k RTR
r -t 3.505290000 -s 17 -d -1 -p AODV -e 48 -c 2 -a 0 -i 0 -k RTR
r -t 3.505290000 -s 18 -d -1 -p AODV -e 48 -c 2 -a 0 -i 0 -k RTR
r -t 3.505290000 -s 19 -d -1 -p AODV -e 48 -c 2 -a 0 -i 0 -k RTR
+ -t 3.505415000 -s 0 -d -1 -p RTS -e 44 -c 2 -a 0 -i 0 -k MAC 
- -t 3.505415000 -s 0 -d -1 -p RTS -e 44 -c 2 -a 0 -i 0 -k MAC
h -t 3.505415000 -s 0 -d -1 -p RTS -e 44 -c 2 -a 0 -i 0 -k MAC
+ -t 3.505644567 -s 16 -d -1 -p AODV -e 48 -c 2 -a 0 -i 0 -k RTR 
- -t 3.505644567 -s 16 -d -1 -p AODV -e 48 -c 2 -a 0 -i 0 -k RTR
h -t 3.505644567 -s 16 -d -1 -p AODV -e 48 -c 2 -a 0 -i 0 -k RTR
r -t 3.505767000 -s 19 -d -1 -p RTS -e 44 -c 2 -a 0 -i 0 -k MAC
+ -t 3.505777000 -s 19 -d -1 -p CTS -e 38 -c 2 -a 0 -i 0 -k MAC 
- -t 3.505777000 -s 19 -d -1 -p CTS -e 38 -c 2 -a 0 -i 0 -k MAC
h -t 3.505777000 -s 19 -d -1 -p CTS -e 38 -c 2 -a 0 -i 0 -k MAC
+ -t 3.505819734 -s 3 -d -1 -p AODV -e 48 -c 2 -a 0 -i 0 -k RTR 
- -t 3.505819734 -s 3 -d -1 -p AODV -e 48 -c 2 -a 0 -i 0 -k RTR
h -t 3.505819734 -s 3 -d -1 -p AODV -e 48 -c 2 -a 0 -i 0 -k RTR
r -t 3.506081000 -s 0 -d -1 -p CTS -e 38 -c 2 -a 0 -i 0 -k MAC
+ -t 3.506091000 -s 0 -d -1 -p ARP -e 86 -c 2 -a 0 -i 0 -k MAC 
- -t 3.506091000 -s 0 -d -1 -p ARP -e 86 -c 2 -a 0 -i 0 -k MAC
h -t 3.506091000 -s 0 -d -1 -p ARP -e 86 -c 2 -a 0 -i 0 -k MAC
r -t 3.506779000 -s 19 -d -1 -p ARP -e 28 -c 2 -a 0 -i 0 -k MAC
+ -t 3.506789000 -s 19 -d -1 -p ACK -e 38 -c 2 -a 0 -i 0 -k MAC 
- -t 3.506789000 -s 19 -d -1 -p ACK -e 38 -c 2 -a 0 -i 0 -k MAC
h -t 3.506789000 -s 19 -d -1 -p ACK -e 38 -c 2 -a 0 -i 0 -k MAC
r -t 3.507093000 -s 0 -d -1 -p ACK -e 38 -c 2 -a 0 -i 0 -k MAC
+ -t 3.507163000 -s 12 -d -1 -p AODV -e 106 -c 2 -a 0 -i 0 -k MAC 
- -t 3.507163000 -s 12 -d -1 -p AODV -e 106 -c 2 -a 0 -i 0 -k MAC
h -t 3.507163000 -s 12 -d -1 -p AODV -e 106 -c 2 -a 0 -i 0 -k MAC
+ -t 3.507796651 -s 8 -d -1 -p AODV -e 48 -c 2 -a 0 -i 0 -k RTR 
- -t 3.507796651 -s 8 -d -1 -p AODV -e 48 -c 2 -a 0 -i 0 -k RTR
h -t 3.507796651 -s 8 -d -1 -p AODV -e 48 -c 2 -a 0 -i 0 -k RTR
+ -t 3.507808677 -s 13 -d -1 -p AODV -e 48 -c 2 -a 0 -i 0 -k RTR 
- -t 3.507808677 -s 13 -d -1 -p AODV -e 48 -c 2 -a 0 -i 0 -k RTR
h -t 3.507808677 -s 13 -d -1 -p AODV -e 48 -c 2 -a 0 -i 0 -k RTR
r -t 3.508011000 -s 11 -d -1 -p AODV -e 48 -c 2 -a 0 -i 0 -k MAC
r -t 3.508011000 -s 10 -d -1 -p AODV -e 48 -c 2 -a 0 -i 0 -k MAC
r -t 3.508011000 -s 9 -d -1 -p AODV -e 48 -c 2 -a 0 -i 0 -k MAC
r -t 3.508011000 -s 8 -d -1 -p AODV -e 48 -c 2 -a 0 -i 0 -k MAC
r -t 3.508011000 -s 7 -d -1 -p AODV -e 48 -c 2 -a 0 -i 0 -k MAC
r -t 3.508011000 -s 6 -d -1 -p AODV -e 48 -c 2 -a 0 -i 0 -k MAC
r -t 3.508011000 -s 5 -d -1 -p AODV -e 48 -c 2 -a 0 -i 0 -k MAC
r -t 3.508011000 -s 4 -d -1 -p AODV -e 48 -c 2 -a 0 -i 0 -k MAC
r -t 3.508011000 -s 3 -d -1 -p AODV -e 48 -c 2 -a 0 -i 0 -k MAC
r -t 3.508011000 -s 2 -d -1 -p AODV -e 48 -c 2 -a 0 -i 0 -k MAC
r -t 3.508011000 -s 1 -d -1 -p AODV -e 48 -c 2 -a 0 -i 0 -k MAC
r -t 3.508011000 -s 0 -d -1 -p AODV -e 48 -c 2 -a 0 -i 0 -k MAC
r -t 3.508011000 -s 13 -d -1 -p AODV -e 48 -c 2 -a 0 -i 0 -k MAC
r -t 3.508011000 -s 14 -d -1 -p AODV -e 48 -c 2 -a 0 -i 0 -k MAC
r -t 3.508011000 -s 15 -d -1 -p AODV -e 48 -c 2 -a 0 -i 0 -k MAC
r -t 3.508011000 -s 16 -d -1 -p AODV -e 48 -c 2 -a 0 -i 0 -k MAC
r -t 3.508011000 -s 17 -d -1 -p AODV -e 48 -c 2 -a 0 -i 0 -k MAC
r -t 3.508011000 -s 18 -d -1 -p AODV -e 48 -c 2 -a 0 -i 0 -k MAC
r -t 3.508011000 -s 19 -d -1 -p AODV -e 48 -c 2 -a 0 -i 0 -k MAC
r -t 3.508036000 -s 11 -d -1 -p AODV -e 48 -c 2 -a 0 -i 0 -k RTR
r -t 3.508036000 -s 10 -d -1 -p AODV -e 48 -c 2 -a 0 -i 0 -k RTR
r -t 3.508036000 -s 9 -d -1 -p AODV -e 48 -c 2 -a 0 -i 0 -k RTR
r -t 3.508036000 -s 8 -d -1 -p AODV -e 48 -c 2 -a 0 -i 0 -k RTR
r -t 3.508036000 -s 7 -d -1 -p AODV -e 48 -c 2 -a 0 -i 0 -k RTR
r -t 3.508036000 -s 6 -d -1 -p AODV -e 48 -c 2 -a 0 -i 0 -k RTR
r -t 3.508036000 -s 5 -d -1 -p AODV -e 48 -c 2 -a 0 -i 0 -k RTR
r -t 3.508036000 -s 4 -d -1 -p AODV -e 48 -c 2 -a 0 -i 0 -k RTR
r -t 3.508036000 -s 3 -d -1 -p AODV -e 48 -c 2 -a 0 -i 0 -k RTR
r -t 3.508036000 -s 2 -d -1 -p AODV -e 48 -c 2 -a 0 -i 0 -k RTR
r -t 3.508036000 -s 1 -d -1 -p AODV -e 48 -c 2 -a 0 -i 0 -k RTR
r -t 3.508036000 -s 0 -d -1 -p AODV -e 48 -c 2 -a 0 -i 0 -k RTR
r -t 3.508036000 -s 13 -d -1 -p AODV -e 48 -c 2 -a 0 -i 0 -k RTR
r -t 3.508036000 -s 14 -d -1 -p AODV -e 48 -c 2 -a 0 -i 0 -k RTR
r -t 3.508036000 -s 15 -d -1 -p AODV -e 48 -c 2 -a 0 -i 0 -k RTR
r -t 3.508036000 -s 16 -d -1 -p AODV -e 48 -c 2 -a 0 -i 0 -k RTR
r -t 3.508036000 -s 17 -d -1 -p AODV -e 48 -c 2 -a 0 -i 0 -k RTR
r -t 3.508036000 -s 18 -d -1 -p AODV -e 48 -c 2 -a 0 -i 0 -k RTR
r -t 3.508036000 -s 19 -d -1 -p AODV -e 48 -c 2 -a 0 -i 0 -k RTR
+ -t 3.508081000 -s 5 -d -1 -p AODV -e 106 -c 2 -a 0 -i 0 -k MAC 
- -t 3.508081000 -s 5 -d -1 -p AODV -e 106 -c 2 -a 0 -i 0 -k MAC
h -t 3.508081000 -s 5 -d -1 -p AODV -e 106 -c 2 -a 0 -i 0 -k MAC
+ -t 3.508081000 -s 18 -d -1 -p AODV -e 106 -c 2 -a 0 -i 0 -k MAC 
- -t 3.508081000 -s 18 -d -1 -p AODV -e 106 -c 2 -a 0 -i 0 -k MAC
h -t 3.508081000 -s 18 -d -1 -p AODV -e 106 -c 2 -a 0 -i 0 -k MAC
d -t 3.508081000 -s 17 -d -1 -p AODV -e 106 -c 2 -a 0 -i 0 -k MAC
d -t 3.508081000 -s 16 -d -1 -p AODV -e 106 -c 2 -a 0 -i 0 -k MAC
d -t 3.508081000 -s 15 -d -1 -p AODV -e 106 -c 2 -a 0 -i 0 -k MAC
d -t 3.508081000 -s 14 -d -1 -p AODV -e 106 -c 2 -a 0 -i 0 -k MAC
d -t 3.508081000 -s 13 -d -1 -p AODV -e 106 -c 2 -a 0 -i 0 -k MAC
d -t 3.508081000 -s 12 -d -1 -p AODV -e 106 -c 2 -a 0 -i 0 -k MAC
d -t 3.508081000 -s 11 -d -1 -p AODV -e 106 -c 2 -a 0 -i 0 -k MAC
d -t 3.508081000 -s 10 -d -1 -p AODV -e 106 -c 2 -a 0 -i 0 -k MAC
d -t 3.508081000 -s 9 -d -1 -p AODV -e 106 -c 2 -a 0 -i 0 -k MAC
d -t 3.508081000 -s 8 -d -1 -p AODV -e 106 -c 2 -a 0 -i 0 -k MAC
d -t 3.508081000 -s 7 -d -1 -p AODV -e 106 -c 2 -a 0 -i 0 -k MAC
d -t 3.508081000 -s 6 -d -1 -p AODV -e 106 -c 2 -a 0 -i 0 -k MAC
d -t 3.508081000 -s 4 -d -1 -p AODV -e 106 -c 2 -a 0 -i 0 -k MAC
d -t 3.508081000 -s 3 -d -1 -p AODV -e 106 -c 2 -a 0 -i 0 -k MAC
d -t 3.508081000 -s 2 -d -1 -p AODV -e 106 -c 2 -a 0 -i 0 -k MAC
d -t 3.508081000 -s 1 -d -1 -p AODV -e 106 -c 2 -a 0 -i 0 -k MAC
d -t 3.508081000 -s 0 -d -1 -p AODV -e 106 -c 2 -a 0 -i 0 -k MAC
d -t 3.508081000 -s 19 -d -1 -p AODV -e 106 -c 2 -a 0 -i 0 -k MAC
d -t 3.508929000 -s 17 -d -1 -p AODV -e 106 -c 2 -a 0 -i 0 -k MAC
d -t 3.508929000 -s 16 -d -1 -p AODV -e 106 -c 2 -a 0 -i 0 -k MAC
d -t 3.508929000 -s 15 -d -1 -p AODV -e 106 -c 2 -a 0 -i 0 -k MAC
d -t 3.508929000 -s 14 -d -1 -p AODV -e 106 -c 2 -a 0 -i 0 -k MAC
d -t 3.508929000 -s 13 -d -1 -p AODV -e 106 -c 2 -a 0 -i 0 -k MAC
d -t 3.508929000 -s 12 -d -1 -p AODV -e 106 -c 2 -a 0 -i 0 -k MAC
d -t 3.508929000 -s 11 -d -1 -p AODV -e 106 -c 2 -a 0 -i 0 -k MAC
d -t 3.508929000 -s 10 -d -1 -p AODV -e 106 -c 2 -a 0 -i 0 -k MAC
d -t 3.508929000 -s 9 -d -1 -p AODV -e 106 -c 2 -a 0 -i 0 -k MAC
d -t 3.508929000 -s 8 -d -1 -p AODV -e 106 -c 2 -a 0 -i 0 -k MAC
d -t 3.508929000 -s 7 -d -1 -p AODV -e 106 -c 2 -a 0 -i 0 -k MAC
d -t 3.508929000 -s 6 -d -1 -p AODV -e 106 -c 2 -a 0 -i 0 -k MAC
d -t 3.508929000 -s 4 -d -1 -p AODV -e 106 -c 2 -a 0 -i 0 -k MAC
d -t 3.508929000 -s 3 -d -1 -p AODV -e 106 -c 2 -a 0 -i 0 -k MAC
d -t 3.508929000 -s 2 -d -1 -p AODV -e 106 -c 2 -a 0 -i 0 -k MAC
d -t 3.508929000 -s 1 -d -1 -p AODV -e 106 -c 2 -a 0 -i 0 -k MAC
d -t 3.508929000 -s 0 -d -1 -p AODV -e 106 -c 2 -a 0 -i 0 -k MAC
d -t 3.508929000 -s 19 -d -1 -p AODV -e 106 -c 2 -a 0 -i 0 -k MAC
+ -t 3.509399555 -s 4 -d -1 -p AODV -e 48 -c 2 -a 0 -i 0 -k RTR 
- -t 3.509399555 -s 4 -d -1 -p AODV -e 48 -c 2 -a 0 -i 0 -k RTR
h -t 3.509399555 -s 4 -d -1 -p AODV -e 48 -c 2 -a 0 -i 0 -k RTR
+ -t 3.509503000 -s 3 -d -1 -p AODV -e 106 -c 2 -a 0 -i 0 -k MAC 
- -t 3.509503000 -s 3 -d -1 -p AODV -e 106 -c 2 -a 0 -i 0 -k MAC
h -t 3.509503000 -s 3 -d -1 -p AODV -e 106 -c 2 -a 0 -i 0 -k MAC
+ -t 3.509572761 -s 6 -d -1 -p AODV -e 48 -c 2 -a 0 -i 0 -k RTR 
- -t 3.509572761 -s 6 -d -1 -p AODV -e 48 -c 2 -a 0 -i 0 -k RTR
h -t 3.509572761 -s 6 -d -1 -p AODV -e 48 -c 2 -a 0 -i 0 -k RTR
+ -t 3.509771235 -s 10 -d -1 -p AODV -e 48 -c 2 -a 0 -i 0 -k RTR 
- -t 3.509771235 -s 10 -d -1 -p AODV -e 48 -c 2 -a 0 -i 0 -k RTR
h -t 3.509771235 -s 10 -d -1 -p AODV -e 48 -c 2 -a 0 -i 0 -k RTR
+ -t 3.510005277 -s 15 -d -1 -p AODV -e 48 -c 2 -a 0 -i 0 -k RTR 
- -t 3.510005277 -s 15 -d -1 -p AODV -e 48 -c 2 -a 0 -i 0 -k RTR
h -t 3.510005277 -s 15 -d -1 -p AODV -e 48 -c 2 -a 0 -i 0 -k RTR
r -t 3.510351000 -s 2 -d -1 -p AODV -e 48 -c 2 -a 0 -i 0 -k MAC
r -t 3.510351000 -s 1 -d -1 -p AODV -e 48 -c 2 -a 0 -i 0 -k MAC
r -t 3.510351000 -s 0 -d -1 -p AODV -e 48 -c 2 -a 0 -i 0 -k MAC
r -t 3.510351000 -s 4 -d -1 -p AODV -e 48 -c 2 -a 0 -i 0 -k MAC
r -t 3.510351000 -s 5 -d -1 -p AODV -e 48 -c 2 -a 0 -i 0 -k MAC
r -t 3.510351000 -s 6 -d -1 -p AODV -e 48 -c 2 -a 0 -i 0 -k MAC
r -t 3.510351000 -s 7 -d -1 -p AODV -e 48 -c 2 -a 0 -i 0 -k MAC
r -t 3.510351000 -s 8 -d -1 -p AODV -e 48 -c 2 -a 0 -i 0 -k MAC
r -t 3.510351000 -s 9 -d -1 -p AODV -e 48 -c 2 -a 0 -i 0 -k MAC
r -t 3.510351000 -s 10 -d -1 -p AODV -e 48 -c 2 -a 0 -i 0 -k MAC
r -t 3.510351000 -s 11 -d -1 -p AODV -e 48 -c 2 -a 0 -i 0 -k MAC
r -t 3.510351000 -s 12 -d -1 -p AODV -e 48 -c 2 -a 0 -i 0 -k MAC
r -t 3.510351000 -s 13 -d -1 -p AODV -e 48 -c 2 -a 0 -i 0 -k MAC
r -t 3.510351000 -s 14 -d -1 -p AODV -e 48 -c 2 -a 0 -i 0 -k MAC
r -t 3.510351000 -s 15 -d -1 -p AODV -e 48 -c 2 -a 0 -i 0 -k MAC
r -t 3.510351000 -s 16 -d -1 -p AODV -e 48 -c 2 -a 0 -i 0 -k MAC
r -t 3.510351000 -s 17 -d -1 -p AODV -e 48 -c 2 -a 0 -i 0 -k MAC
r -t 3.510351000 -s 18 -d -1 -p AODV -e 48 -c 2 -a 0 -i 0 -k MAC
r -t 3.510351000 -s 19 -d -1 -p AODV -e 48 -c 2 -a 0 -i 0 -k MAC
r -t 3.510376000 -s 2 -d -1 -p AODV -e 48 -c 2 -a 0 -i 0 -k RTR
r -t 3.510376000 -s 1 -d -1 -p AODV -e 48 -c 2 -a 0 -i 0 -k RTR
r -t 3.510376000 -s 0 -d -1 -p AODV -e 48 -c 2 -a 0 -i 0 -k RTR
r -t 3.510376000 -s 4 -d -1 -p AODV -e 48 -c 2 -a 0 -i 0 -k RTR
r -t 3.510376000 -s 5 -d -1 -p AODV -e 48 -c 2 -a 0 -i 0 -k RTR
r -t 3.510376000 -s 6 -d -1 -p AODV -e 48 -c 2 -a 0 -i 0 -k RTR
r -t 3.510376000 -s 7 -d -1 -p AODV -e 48 -c 2 -a 0 -i 0 -k RTR
r -t 3.510376000 -s 8 -d -1 -p AODV -e 48 -c 2 -a 0 -i 0 -k RTR
r -t 3.510376000 -s 9 -d -1 -p AODV -e 48 -c 2 -a 0 -i 0 -k RTR
r -t 3.510376000 -s 10 -d -1 -p AODV -e 48 -c 2 -a 0 -i 0 -k RTR
r -t 3.510376000 -s 11 -d -1 -p AODV -e 48 -c 2 -a 0 -i 0 -k RTR
r -t 3.510376000 -s 12 -d -1 -p AODV -e 48 -c 2 -a 0 -i 0 -k RTR
r -t 3.510376000 -s 13 -d -1 -p AODV -e 48 -c 2 -a 0 -i 0 -k RTR
r -t 3.510376000 -s 14 -d -1 -p AODV -e 48 -c 2 -a 0 -i 0 -k RTR
r -t 3.510376000 -s 15 -d -1 -p AODV -e 48 -c 2 -a 0 -i 0 -k RTR
r -t 3.510376000 -s 16 -d -1 -p AODV -e 48 -c 2 -a 0 -i 0 -k RTR
r -t 3.510376000 -s 17 -d -1 -p AODV -e 48 -c 2 -a 0 -i 0 -k RTR
r -t 3.510376000 -s 18 -d -1 -p AODV -e 48 -c 2 -a 0 -i 0 -k RTR
r -t 3.510376000 -s 19 -d -1 -p AODV -e 48 -c 2 -a 0 -i 0 -k RTR
+ -t 3.510421000 -s 11 -d -1 -p AODV -e 106 -c 2 -a 0 -i 0 -k MAC 
- -t 3.510421000 -s 11 -d -1 -p AODV -e 106 -c 2 -a 0 -i 0 -k MAC
h -t 3.510421000 -s 11 -d -1 -p AODV -e 106 -c 2 -a 0 -i 0 -k MAC
r -t 3.511269000 -s 10 -d -1 -p AODV -e 48 -c 2 -a 0 -i 0 -k MAC
r -t 3.511269000 -s 9 -d -1 -p AODV -e 48 -c 2 -a 0 -i 0 -k MAC
r -t 3.511269000 -s 8 -d -1 -p AODV -e 48 -c 2 -a 0 -i 0 -k MAC
r -t 3.511269000 -s 7 -d -1 -p AODV -e 48 -c 2 -a 0 -i 0 -k MAC
r -t 3.511269000 -s 6 -d -1 -p AODV -e 48 -c 2 -a 0 -i 0 -k MAC
r -t 3.511269000 -s 5 -d -1 -p AODV -e 48 -c 2 -a 0 -i 0 -k MAC
r -t 3.511269000 -s 4 -d -1 -p AODV -e 48 -c 2 -a 0 -i 0 -k MAC
r -t 3.511269000 -s 3 -d -1 -p AODV -e 48 -c 2 -a 0 -i 0 -k MAC
r -t 3.511269000 -s 2 -d -1 -p AODV -e 48 -c 2 -a 0 -i 0 -k MAC
r -t 3.511269000 -s 1 -d -1 -p AODV -e 48 -c 2 -a 0 -i 0 -k MAC
r -t 3.511269000 -s 0 -d -1 -p AODV -e 48 -c 2 -a 0 -i 0 -k MAC
r -t 3.511269000 -s 12 -d -1 -p AODV -e 48 -c 2 -a 0 -i 0 -k MAC
r -t 3.511269000 -s 13 -d -1 -p AODV -e 48 -c 2 -a 0 -i 0 -k MAC
r -t 3.511269000 -s 14 -d -1 -p AODV -e 48 -c 2 -a 0 -i 0 -k MAC
r -t 3.511269000 -s 15 -d -1 -p AODV -e 48 -c 2 -a 0 -i 0 -k MAC
r -t 3.511269000 -s 16 -d -1 -p AODV -e 48 -c 2 -a 0 -i 0 -k MAC
r -t 3.511269000 -s 17 -d -1 -p AODV -e 48 -c 2 -a 0 -i 0 -k MAC
r -t 3.511269000 -s 18 -d -1 -p AODV -e 48 -c 2 -a 0 -i 0 -k MAC
r -t 3.511269000 -s 19 -d -1 -p AODV -e 48 -c 2 -a 0 -i 0 -k MAC
r -t 3.511294000 -s 10 -d -1 -p AODV -e 48 -c 2 -a 0 -i 0 -k RTR
r -t 3.511294000 -s 9 -d -1 -p AODV -e 48 -c 2 -a 0 -i 0 -k RTR
r -t 3.511294000 -s 8 -d -1 -p AODV -e 48 -c 2 -a 0 -i 0 -k RTR
r -t 3.511294000 -s 7 -d -1 -p AODV -e 48 -c 2 -a 0 -i 0 -k RTR
r -t 3.511294000 -s 6 -d -1 -p AODV -e 48 -c 2 -a 0 -i 0 -k RTR
r -t 3.511294000 -s 5 -d -1 -p AODV -e 48 -c 2 -a 0 -i 0 -k RTR
r -t 3.511294000 -s 4 -d -1 -p AODV -e 48 -c 2 -a 0 -i 0 -k RTR
r -t 3.511294000 -s 3 -d -1 -p AODV -e 48 -c 2 -a 0 -i 0 -k RTR
r -t 3.511294000 -s 2 -d -1 -p AODV -e 48 -c 2 -a 0 -i 0 -k RTR
r -t 3.511294000 -s 1 -d -1 -p AODV -e 48 -c 2 -a 0 -i 0 -k RTR
r -t 3.511294000 -s 0 -d -1 -p AODV -e 48 -c 2 -a 0 -i 0 -k RTR
r -t 3.511294000 -s 12 -d -1 -p AODV -e 48 -c 2 -a 0 -i 0 -k RTR
r -t 3.511294000 -s 13 -d -1 -p AODV -e 48 -c 2 -a 0 -i 0 -k RTR
r -t 3.511294000 -s 14 -d -1 -p AODV -e 48 -c 2 -a 0 -i 0 -k RTR
r -t 3.511294000 -s 15 -d -1 -p AODV -e 48 -c 2 -a 0 -i 0 -k RTR
r -t 3.511294000 -s 16 -d -1 -p AODV -e 48 -c 2 -a 0 -i 0 -k RTR
r -t 3.511294000 -s 17 -d -1 -p AODV -e 48 -c 2 -a 0 -i 0 -k RTR
r -t 3.511294000 -s 18 -d -1 -p AODV -e 48 -c 2 -a 0 -i 0 -k RTR
r -t 3.511294000 -s 19 -d -1 -p AODV -e 48 -c 2 -a 0 -i 0 -k RTR
+ -t 3.511339000 -s 13 -d -1 -p AODV -e 106 -c 2 -a 0 -i 0 -k MAC 
- -t 3.511339000 -s 13 -d -1 -p AODV -e 106 -c 2 -a 0 -i 0 -k MAC
h -t 3.511339000 -s 13 -d -1 -p AODV -e 106 -c 2 -a 0 -i 0 -k MAC
+ -t 3.511339000 -s 19 -d -1 -p RTS -e 44 -c 2 -a 0 -i 0 -k MAC 
- -t 3.511339000 -s 19 -d -1 -p RTS -e 44 -c 2 -a 0 -i 0 -k MAC
h -t 3.511339000 -s 19 -d -1 -p RTS -e 44 -c 2 -a 0 -i 0 -k MAC
d -t 3.511339000 -s 0 -d -1 -p RTS -e 44 -c 2 -a 0 -i 0 -k MAC
d -t 3.512187000 -s 12 -d -1 -p AODV -e 106 -c 2 -a 0 -i 0 -k MAC
d -t 3.512187000 -s 11 -d -1 -p AODV -e 106 -c 2 -a 0 -i 0 -k MAC
d -t 3.512187000 -s 10 -d -1 -p AODV -e 106 -c 2 -a 0 -i 0 -k MAC
d -t 3.512187000 -s 9 -d -1 -p AODV -e 106 -c 2 -a 0 -i 0 -k MAC
d -t 3.512187000 -s 8 -d -1 -p AODV -e 106 -c 2 -a 0 -i 0 -k MAC
d -t 3.512187000 -s 7 -d -1 -p AODV -e 106 -c 2 -a 0 -i 0 -k MAC
d -t 3.512187000 -s 6 -d -1 -p AODV -e 106 -c 2 -a 0 -i 0 -k MAC
d -t 3.512187000 -s 5 -d -1 -p AODV -e 106 -c 2 -a 0 -i 0 -k MAC