s -t 3.500000000 -Hs 0 -Hd -2 -Ni 0 -Nx 0.00 -Ny 0.00 -Nz 0.00 -Ne 10.000000 -Nl AGT -Nw --- -Ma 0 -Md 0 -Ms 0 -Mt 0 -Is 0.0 -Id 19.0 -It cbr -Il 500 -If 0 -Ii 0 -Iv 32 -Pn cbr -Pi 0 -Pf 0 -Po 0 
r -t 3.500000000 -Hs 0 -Hd -2 -Ni 0 -Nx 0.00 -Ny 0.00 -Nz 0.00 -Ne 10.000000 -Nl RTR -Nw --- -Ma 0 -Md 0 -Ms 0 -Mt 0 -Is 0.0 -Id 19.0 -It cbr -Il 500 -If 0 -Ii 0 -Iv 32 -Pn cbr -Pi 0 -Pf 0 -Po 0 
s -t 3.500000000 -Hs 0 -Hd -2 -Ni 0 -Nx 0.00 -Ny 0.00 -Nz 0.00 -Ne 10.000000 -Nl RTR -Nw --- -Ma 0 -Md 0 -Ms 0 -Mt 0 -Is 0.255 -Id -1.255 -It AODV -Il 48 -If 0 -Ii 0 -Iv 30 -P aodv -Pt 0x2 -Ph 1 -Pb 1 -Pd 19 -Pds 0 -Ps 0 -Pss 4 -Pc REQUEST 
s -t 3.500535000 -Hs 0 -Hd -2 -Ni 0 -Nx 0.00 -Ny 0.00 -Nz 0.00 -Ne 10.000000 -Nl MAC -Nw --- -Ma 0 -Md ffffffff -Ms 0 -Mt 800 -Is 0.255 -Id -1.255 -It AODV -Il 106 -If 0 -Ii 0 -Iv 30 -P aodv -Pt 0x2 -Ph 1 -Pb 1 -Pd 19 -Pds 0 -Ps 0 -Pss 4 -Pc REQUEST 
N -t 3.500535 -n 1 -e 9.999576
N -t 3.500535 -n 2 -e 9.999576
N -t 3.500535 -n 3 -e 9.999576
N -t 3.500535 -n 4 -e 9.999576
N -t 3.500535 -n 5 -e 9.999576
N -t 3.500535 -n 6 -e 9.999576
N -t 3.500535 -n 7 -e 9.999576
N -t 3.500535 -n 8 -e 9.999576
N -t 3.500535 -n 9 -e 9.999576
N -t 3.500535 -n 10 -e 9.999576
N -t 3.500535 -n 11 -e 9.999576
N -t 3.500535 -n 12 -e 9.999576
N -t 3.500535 -n 13 -e 9.999576
N -t 3.500535 -n 14 -e 9.999576
N -t 3.500535 -n 15 -e 9.999576
N -t 3.500535 -n 16 -e 9.999576
N -t 3.500535 -n 17 -e 9.999576
N -t 3.500535 -n 18 -e 9.999576
N -t 3.500535 -n 19 -e 9.999576
r -t 3.501383000 -Hs 1 -Hd -2 -Ni 1 -Nx 0.00 -Ny 0.00 -Nz 0.00 -Ne 9.999576 -Nl MAC -Nw --- -Ma 0 -Md ffffffff -Ms 0 -Mt 800 -Is 0.255 -Id -1.255 -It AODV -Il 48 -If 0 -Ii 0 -Iv 30 -P aodv -Pt 0x2 -Ph 1 -Pb 1 -Pd 19 -Pds 0 -Ps 0 -Pss 4 -Pc REQUEST 
r -t 3.501383000 -Hs 2 -Hd -2 -Ni 2 -Nx 0.00 -Ny 0.00 -Nz 0.00 -Ne 9.999576 -Nl MAC -Nw --- -Ma 0 -Md ffffffff -Ms 0 -Mt 800 -Is 0.255 -Id -1.255 -It AODV -Il 48 -If 0 -Ii 0 -Iv 30 -P aodv -Pt 0x2 -Ph 1 -Pb 1 -Pd 19 -Pds 0 -Ps 0 -Pss 4 -Pc REQUEST 
r -t 3.501383000 -Hs 3 -Hd -2 -Ni 3 -Nx 0.00 -Ny 0.00 -Nz 0.00 -Ne 9.999576 -Nl MAC -Nw --- -Ma 0 -Md ffffffff -Ms 0 -Mt 800 -Is 0.255 -Id -1.255 -It AODV -Il 48 -If 0 -Ii 0 -Iv 30 -P aodv -Pt 0x2 -Ph 1 -Pb 1 -Pd 19 -Pds 0 -Ps 0 -Pss 4 -Pc REQUEST 
r -t 3.501383000 -Hs 4 -Hd -2 -Ni 4 -Nx 0.00 -Ny 0.00 -Nz 0.00 -Ne 9.999576 -Nl MAC -Nw --- -Ma 0 -Md ffffffff -Ms 0 -Mt 800 -Is 0.255 -Id -1.255 -It AODV -Il 48 -If 0 -Ii 0 -Iv 30 -P aodv -Pt 0x2 -Ph 1 -Pb 1 -Pd 19 -Pds 0 -Ps 0 -Pss 4 -Pc REQUEST 
r -t 3.501383000 -Hs 5 -Hd -2 -Ni 5 -Nx 0.00 -Ny 0.00 -Nz 0.00 -Ne 9.999576 -Nl MAC -Nw --- -Ma 0 -Md ffffffff -Ms 0 -Mt 800 -Is 0.255 -Id -1.255 -It AODV -Il 48 -If 0 -Ii 0 -Iv 30 -P aodv -Pt 0x2 -Ph 1 -Pb 1 -Pd 19 -Pds 0 -Ps 0 -Pss 4 -Pc REQUEST 
r -t 3.501383000 -Hs 6 -Hd -2 -Ni 6 -Nx 0.00 -Ny 0.00 -Nz 0.00 -Ne 9.999576 -Nl MAC -Nw --- -Ma 0 -Md ffffffff -Ms 0 -Mt 800 -Is 0.255 -Id -1.255 -It AODV -Il 48 -If 0 -Ii 0 -Iv 30 -P aodv -Pt 0x2 -Ph 1 -Pb 1 -Pd 19 -Pds 0 -Ps 0 -Pss 4 -Pc REQUEST 
r -t 3.501383000 -Hs 7 -Hd -2 -Ni 7 -Nx 0.00 -Ny 0.00 -Nz 0.00 -Ne 9.999576 -Nl MAC -Nw --- -Ma 0 -Md ffffffff -Ms 0 -Mt 800 -Is 0.255 -Id -1.255 -It AODV -Il 48 -If 0 -Ii 0 -Iv 30 -P aodv -Pt 0x2 -Ph 1 -Pb 1 -Pd 19 -Pds 0 -Ps 0 -Pss 4 -Pc REQUEST 
r -t 3.501383000 -Hs 8 -Hd -2 -Ni 8 -Nx 0.00 -Ny 0.00 -Nz 0.00 -Ne 9.999576 -Nl MAC -Nw --- -Ma 0 -Md ffffffff -Ms 0 -Mt 800 -Is 0.255 -Id -1.255 -It AODV -Il 48 -If 0 -Ii 0 -Iv 30 -P aodv -Pt 0x2 -Ph 1 -Pb 1 -Pd 19 -Pds 0 -Ps 0 -Pss 4 -Pc REQUEST 
r -t 3.501383000 -Hs 9 -Hd -2 -Ni 9 -Nx 0.00 -Ny 0.00 -Nz 0.00 -Ne 9.999576 -Nl MAC -Nw --- -Ma 0 -Md ffffffff -Ms 0 -Mt 800 -Is 0.255 -Id -1.255 -It AODV -Il 48 -If 0 -Ii 0 -Iv 30 -P aodv -Pt 0x2 -Ph 1 -Pb 1 -Pd 19 -Pds 0 -Ps 0 -Pss 4 -Pc REQUEST 
r -t 3.501383000 -Hs 10 -Hd -2 -Ni 10 -Nx 0.00 -Ny 0.00 -Nz 0.00 -Ne 9.999576 -Nl MAC -Nw --- -Ma 0 -Md ffffffff -Ms 0 -Mt 800 -Is 0.255 -Id -1.255 -It AODV -Il 48 -If 0 -Ii 0 -Iv 30 -P aodv -Pt 0x2 -Ph 1 -Pb 1 -Pd 19 -Pds 0 -Ps 0 -Pss 4 -Pc REQUEST 
r -t 3.501383000 -Hs 11 -Hd -2 -Ni 11 -Nx 0.00 -Ny 0.00 -Nz 0.00 -Ne 9.999576 -Nl MAC -Nw --- -Ma 0 -Md ffffffff -Ms 0 -Mt 800 -Is 0.255 -Id -1.255 -It AODV -Il 48 -If 0 -Ii 0 -Iv 30 -P aodv -Pt 0x2 -Ph 1 -Pb 1 -Pd 19 -Pds 0 -Ps 0 -Pss 4 -Pc REQUEST 
r -t 3.501383000 -Hs 12 -Hd -2 -Ni 12 -Nx 0.00 -Ny 0.00 -Nz 0.00 -Ne 9.999576 -Nl MAC -Nw --- -Ma 0 -Md ffffffff -Ms 0 -Mt 800 -Is 0.255 -Id -1.255 -It AODV -Il 48 -If 0 -Ii 0 -Iv 30 -P aodv -Pt 0x2 -Ph 1 -Pb 1 -Pd 19 -Pds 0 -Ps 0 -Pss 4 -Pc REQUEST 
r -t 3.501383000 -Hs 13 -Hd -2 -Ni 13 -Nx 0.00 -Ny 0.00 -Nz 0.00 -Ne 9.999576 -Nl MAC -Nw --- -Ma 0 -Md ffffffff -Ms 0 -Mt 800 -Is 0.255 -Id -1.255 -It AODV -Il 48 -If 0 -Ii 0 -Iv 30 -P aodv -Pt 0x2 -Ph 1 -Pb 1 -Pd 19 -Pds 0 -Ps 0 -Pss 4 -Pc REQUEST 
r -t 3.501383000 -Hs 14 -Hd -2 -Ni 14 -Nx 0.00 -Ny 0.00 -Nz 0.00 -Ne 9.999576 -Nl MAC -Nw --- -Ma 0 -Md ffffffff -Ms 0 -Mt 800 -Is 0.255 -Id -1.255 -It AODV -Il 48 -If 0 -Ii 0 -Iv 30 -P aodv -Pt 0x2 -Ph 1 -Pb 1 -Pd 19 -Pds 0 -Ps 0 -Pss 4 -Pc REQUEST 
r -t 3.501383000 -Hs 15 -Hd -2 -Ni 15 -Nx 0.00 -Ny 0.00 -Nz 0.00 -Ne 9.999576 -Nl MAC -Nw --- -Ma 0 -Md ffffffff -Ms 0 -Mt 800 -Is 0.255 -Id -1.255 -It AODV -Il 48 -If 0 -Ii 0 -Iv 30 -P aodv -Pt 0x2 -Ph 1 -Pb 1 -Pd 19 -Pds 0 -Ps 0 -Pss 4 -Pc REQUEST 
r -t 3.501383000 -Hs 16 -Hd -2 -Ni 16 -Nx 0.00 -Ny 0.00 -Nz 0.00 -Ne 9.999576 -Nl MAC -Nw --- -Ma 0 -Md ffffffff -Ms 0 -Mt 800 -Is 0.255 -Id -1.255 -It AODV -Il 48 -If 0 -Ii 0 -Iv 30 -P aodv -Pt 0x2 -Ph 1 -Pb 1 -Pd 19 -Pds 0 -Ps 0 -Pss 4 -Pc REQUEST 
r -t 3.501383000 -Hs 17 -Hd -2 -Ni 17 -Nx 0.00 -Ny 0.00 -Nz 0.00 -Ne 9.999576 -Nl MAC -Nw --- -Ma 0 -Md ffffffff -Ms 0 -Mt 800 -Is 0.255 -Id -1.255 -It AODV -Il 48 -If 0 -Ii 0 -Iv 30 -P aodv -Pt 0x2 -Ph 1 -Pb 1 -Pd 19 -Pds 0 -Ps 0 -Pss 4 -Pc REQUEST 
r -t 3.501383000 -Hs 18 -Hd -2 -Ni 18 -Nx 0.00 -Ny 0.00 -Nz 0.00 -Ne 9.999576 -Nl MAC -Nw --- -Ma 0 -Md ffffffff -Ms 0 -Mt 800 -Is 0.255 -Id -1.255 -It AODV -Il 48 -If 0 -Ii 0 -Iv 30 -P aodv -Pt 0x2 -Ph 1 -Pb 1 -Pd 19 -Pds 0 -Ps 0 -Pss 4 -Pc REQUEST 
r -t 3.501383000 -Hs 19 -Hd -2 -Ni 19 -Nx 0.00 -Ny 0.00 -Nz 0.00 -Ne 9.999576 -Nl MAC -Nw --- -Ma 0 -Md ffffffff -Ms 0 -Mt 800 -Is 0.255 -Id -1.255 -It AODV -Il 48 -If 0 -Ii 0 -Iv 30 -P aodv -Pt 0x2 -Ph 1 -Pb 1 -Pd 19 -Pds 0 -Ps 0 -Pss 4 -Pc REQUEST 
r -t 3.501408000 -Hs 1 -Hd -2 -Ni 1 -Nx 0.00 -Ny 0.00 -Nz 0.00 -Ne 9.999576 -Nl RTR -Nw --- -Ma 0 -Md ffffffff -Ms 0 -Mt 800 -Is 0.255 -Id -1.255 -It AODV -Il 48 -If 0 -Ii 0 -Iv 30 -P aodv -Pt 0x2 -Ph 1 -Pb 1 -Pd 19 -Pds 0 -Ps 0 -Pss 4 -Pc REQUEST 
r -t 3.501408000 -Hs 2 -Hd -2 -Ni 2 -Nx 0.00 -Ny 0.00 -Nz 0.00 -Ne 9.999576 -Nl RTR -Nw --- -Ma 0 -Md ffffffff -Ms 0 -Mt 800 -Is 0.255 -Id -1.255 -It AODV -Il 48 -If 0 -Ii 0 -Iv 30 -P aodv -Pt 0x2 -Ph 1 -Pb 1 -Pd 19 -Pds 0 -Ps 0 -Pss 4 -Pc REQUEST 
r -t 3.501408000 -Hs 3 -Hd -2 -Ni 3 -Nx 0.00 -Ny 0.00 -Nz 0.00 -Ne 9.999576 -Nl RTR -Nw --- -Ma 0 -Md ffffffff -Ms 0 -Mt 800 -Is 0.255 -Id -1.255 -It AODV -Il 48 -If 0 -Ii 0 -Iv 30 -P aodv -Pt 0x2 -Ph 1 -Pb 1 -Pd 19 -Pds 0 -Ps 0 -Pss 4 -Pc REQUEST 
r -t 3.501408000 -Hs 4 -Hd -2 -Ni 4 -Nx 0.00 -Ny 0.00 -Nz 0.00 -Ne 9.999576 -Nl RTR -Nw --- -Ma 0 -Md ffffffff -Ms 0 -Mt 800 -Is 0.255 -Id -1.255 -It AODV -Il 48 -If 0 -Ii 0 -Iv 30 -P aodv -Pt 0x2 -Ph 1 -Pb 1 -Pd 19 -Pds 0 -Ps 0 -Pss 4 -Pc REQUEST 
r -t 3.501408000 -Hs 5 -Hd -2 -Ni 5 -Nx 0.00 -Ny 0.00 -Nz 0.00 -Ne 9.999576 -Nl RTR -Nw --- -Ma 0 -Md ffffffff -Ms 0 -Mt 800 -Is 0.255 -Id -1.255 -It AODV -Il 48 -If 0 -Ii 0 -Iv 30 -P aodv -Pt 0x2 -Ph 1 -Pb 1 -Pd 19 -Pds 0 -Ps 0 -Pss 4 -Pc REQUEST 
r -t 3.501408000 -Hs 6 -Hd -2 -Ni 6 -Nx 0.00 -Ny 0.00 -Nz 0.00 -Ne 9.999576 -Nl RTR -Nw --- -Ma 0 -Md ffffffff -Ms 0 -Mt 800 -Is 0.255 -Id -1.255 -It AODV -Il 48 -If 0 -Ii 0 -Iv 30 -P aodv -Pt 0x2 -Ph 1 -Pb 1 -Pd 19 -Pds 0 -Ps 0 -Pss 4 -Pc REQUEST 
r -t 3.501408000 -Hs 7 -Hd -2 -Ni 7 -Nx 0.00 -Ny 0.00 -Nz 0.00 -Ne 9.999576 -Nl RTR -Nw --- -Ma 0 -Md ffffffff -Ms 0 -Mt 800 -Is 0.255 -Id -1.255 -It AODV -Il 48 -If 0 -Ii 0 -Iv 30 -P aodv -Pt 0x2 -Ph 1 -Pb 1 -Pd 19 -Pds 0 -Ps 0 -Pss 4 -Pc REQUEST 
r -t 3.501408000 -Hs 8 -Hd -2 -Ni 8 -Nx 0.00 -Ny 0.00 -Nz 0.00 -Ne 9.999576 -Nl RTR -Nw --- -Ma 0 -Md ffffffff -Ms 0 -Mt 800 -Is 0.255 -Id -1.255 -It AODV -Il 48 -If 0 -Ii 0 -Iv 30 -P aodv -Pt 0x2 -Ph 1 -Pb 1 -Pd 19 -Pds 0 -Ps 0 -Pss 4 -Pc REQUEST 
r -t 3.501408000 -Hs 9 -Hd -2 -Ni 9 -Nx 0.00 -Ny 0.00 -Nz 0.00 -Ne 9.999576 -Nl RTR -Nw --- -Ma 0 -Md ffffffff -Ms 0 -Mt 800 -Is 0.255 -Id -1.255 -It AODV -Il 48 -If 0 -Ii 0 -Iv 30 -P aodv -Pt 0x2 -Ph 1 -Pb 1 -Pd 19 -Pds 0 -Ps 0 -Pss 4 -Pc REQUEST 
r -t 3.501408000 -Hs 10 -Hd -2 -Ni 10 -Nx 0.00 -Ny 0.00 -Nz 0.00 -Ne 9.999576 -Nl RTR -Nw --- -Ma 0 -Md ffffffff -Ms 0 -Mt 800 -Is 0.255 -Id -1.255 -It AODV -Il 48 -If 0 -Ii 0 -Iv 30 -P aodv -Pt 0x2 -Ph 1 -Pb 1 -Pd 19 -Pds 0 -Ps 0 -Pss 4 -Pc REQUEST 
r -t 3.501408000 -Hs 11 -Hd -2 -Ni 11 -Nx 0.00 -Ny 0.00 -Nz 0.00 -Ne 9.999576 -Nl RTR -Nw --- -Ma 0 -Md ffffffff -Ms 0 -Mt 800 -Is 0.255 -Id -1.255 -It AODV -Il 48 -If 0 -Ii 0 -Iv 30 -P aodv -Pt 0x2 -Ph 1 -Pb 1 -Pd 19 -Pds 0 -Ps 0 -Pss 4 -Pc REQUEST 
r -t 3.501408000 -Hs 12 -Hd -2 -Ni 12 -Nx 0.00 -Ny 0.00 -Nz 0.00 -Ne 9.999576 -Nl RTR -Nw --- -Ma 0 -Md ffffffff -Ms 0 -Mt 800 -Is 0.255 -Id -1.255 -It AODV -Il 48 -If 0 -Ii 0 -Iv 30 -P aodv -Pt 0x2 -Ph 1 -Pb 1 -Pd 19 -Pds 0 -Ps 0 -Pss 4 -Pc REQUEST 
r -t 3.501408000 -Hs 13 -Hd -2 -Ni 13 -Nx 0.00 -Ny 0.00 -Nz 0.00 -Ne 9.999576 -Nl RTR -Nw --- -Ma 0 -Md ffffffff -Ms 0 -Mt 800 -Is 0.255 -Id -1.255 -It AODV -Il 48 -If 0 -Ii 0 -Iv 30 -P aodv -Pt 0x2 -Ph 1 -Pb 1 -Pd 19 -Pds 0 -Ps 0 -Pss 4 -Pc REQUEST 
r -t 3.501408000 -Hs 14 -Hd -2 -Ni 14 -Nx 0.00 -Ny 0.00 -Nz 0.00 -Ne 9.999576 -Nl RTR -Nw --- -Ma 0 -Md ffffffff -Ms 0 -Mt 800 -Is 0.255 -Id -1.255 -It AODV -Il 48 -If 0 -Ii 0 -Iv 30 -P aodv -Pt 0x2 -Ph 1 -Pb 1 -Pd 19 -Pds 0 -Ps 0 -Pss 4 -Pc REQUEST 
r -t 3.501408000 -Hs 15 -Hd -2 -Ni 15 -Nx 0.00 -Ny 0.00 -Nz 0.00 -Ne 9.999576 -Nl RTR -Nw --- -Ma 0 -Md ffffffff -Ms 0 -Mt 800 -Is 0.255 -Id -1.255 -It AODV -Il 48 -If 0 -Ii 0 -Iv 30 -P aodv -Pt 0x2 -Ph 1 -Pb 1 -Pd 19 -Pds 0 -Ps 0 -Pss 4 -Pc REQUEST 
r -t 3.501408000 -Hs 16 -Hd -2 -Ni 16 -Nx 0.00 -Ny 0.00 -Nz 0.00 -Ne 9.999576 -Nl RTR -Nw --- -Ma 0 -Md ffffffff -Ms 0 -Mt 800 -Is 0.255 -Id -1.255 -It AODV -Il 48 -If 0 -Ii 0 -Iv 30 -P aodv -Pt 0x2 -Ph 1 -Pb 1 -Pd 19 -Pds 0 -Ps 0 -Pss 4 -Pc REQUEST 
r -t 3.501408000 -Hs 17 -Hd -2 -Ni 17 -Nx 0.00 -Ny 0.00 -Nz 0.00 -Ne 9.999576 -Nl RTR -Nw --- -Ma 0 -Md ffffffff -Ms 0 -Mt 800 -Is 0.255 -Id -1.255 -It AODV -Il 48 -If 0 -Ii 0 -Iv 30 -P aodv -Pt 0x2 -Ph 1 -Pb 1 -Pd 19 -Pds 0 -Ps 0 -Pss 4 -Pc REQUEST 
r -t 3.501408000 -Hs 18 -Hd -2 -Ni 18 -Nx 0.00 -Ny 0.00 -Nz 0.00 -Ne 9.999576 -Nl RTR -Nw --- -Ma 0 -Md ffffffff -Ms 0 -Mt 800 -Is 0.255 -Id -1.255 -It AODV -Il 48 -If 0 -Ii 0 -Iv 30 -P aodv -Pt 0x2 -Ph 1 -Pb 1 -Pd 19 -Pds 0 -Ps 0 -Pss 4 -Pc REQUEST 
r -t 3.501408000 -Hs 19 -Hd -2 -Ni 19 -Nx 0.00 -Ny 0.00 -Nz 0.00 -Ne 9.999576 -Nl RTR -Nw --- -Ma 0 -Md ffffffff -Ms 0 -Mt 800 -Is 0.255 -Id -1.255 -It AODV -Il 48 -If 0 -Ii 0 -Iv 30 -P aodv -Pt 0x2 -Ph 1 -Pb 1 -Pd 19 -Pds 0 -Ps 0 -Pss 4 -Pc REQUEST 
s -t 3.501408000 -Hs 19 -Hd 0 -Ni 19 -Nx 0.00 -Ny 0.00 -Nz 0.00 -Ne 9.999576 -Nl RTR -Nw --- -Ma 0 -Md 0 -Ms 0 -Mt 0 -Is 19.255 -Id 0.255 -It AODV -Il 44 -If 0 -Ii 0 -Iv 30 -P aodv -Pt 0x4 -Ph 1 -Pd 19 -Pds 4 -Pl 10.000000 -Pc REPLY 
s -t 3.501550047 -Hs 1 -Hd -2 -Ni 1 -Nx 0.00 -Ny 0.00 -Nz 0.00 -Ne 9.999576 -Nl RTR -Nw --- -Ma 0 -Md ffffffff -Ms 0 -Mt 800 -Is 1.255 -Id -1.255 -It AODV -Il 48 -If 0 -Ii 0 -Iv 29 -P aodv -Pt 0x2 -Ph 2 -Pb 1 -Pd 19 -Pds 0 -Ps 0 -Pss 4 -Pc REQUEST 
s -t 3.501783000 -Hs 19 -Hd -2 -Ni 19 -Nx 0.00 -Ny 0.00 -Nz 0.00 -Ne 9.999576 -Nl MAC -Nw --- -Ma 0 -Md ffffffff -Ms 13 -Mt 806 -P arp -Po REQUEST -Pms 19 -Ps 19 -Pmd 0 -Pd 0 
N -t 3.501783 -n 18 -e 9.999232
N -t 3.501783 -n 17 -e 9.999232
N -t 3.501783 -n 16 -e 9.999232
N -t 3.501783 -n 15 -e 9.999232
N -t 3.501783 -n 14 -e 9.999232
N -t 3.501783 -n 13 -e 9.999232
N -t 3.501783 -n 12 -e 9.999232
N -t 3.501783 -n 11 -e 9.999232
N -t 3.501783 -n 10 -e 9.999232
N -t 3.501783 -n 9 -e 9.999232
N -t 3.501783 -n 8 -e 9.999232
N -t 3.501783 -n 7 -e 9.999232
N -t 3.501783 -n 6 -e 9.999232
N -t 3.501783 -n 5 -e 9.999232
N -t 3.501783 -n 4 -e 9.999232
N -t 3.501783 -n 3 -e 9.999232
N -t 3.501783 -n 2 -e 9.999232
N -t 3.501783 -n 1 -e 9.999232
N -t 3.501783 -n 0 -e 9.998808
s -t 3.501835946 -Hs 12 -Hd -2 -Ni 12 -Nx 0.00 -Ny 0.00 -Nz 0.00 -Ne 9.999232 -Nl RTR -Nw --- -Ma 0 -Md ffffffff -Ms 0 -Mt 800 -Is 12.255 -Id -1.255 -It AODV -Il 48 -If 0 -Ii 0 -Iv 29 -P aodv -Pt 0x2 -Ph 2 -Pb 1 -Pd 19 -Pds 0 -Ps 0 -Pss 4 -Pc REQUEST 
s -t 3.502289227 -Hs 2 -Hd -2 -Ni 2 -Nx 0.00 -Ny 0.00 -Nz 0.00 -Ne 9.999232 -Nl RTR -Nw --- -Ma 0 -Md ffffffff -Ms 0 -Mt 800 -Is 2.255 -Id -1.255 -It AODV -Il 48 -If 0 -Ii 0 -Iv 29 -P aodv -Pt 0x2 -Ph 2 -Pb 1 -Pd 19 -Pds 0 -Ps 0 -Pss 4 -Pc REQUEST 
s -t 3.502349389 -Hs 18 -Hd -2 -Ni 18 -Nx 0.00 -Ny 0.00 -Nz 0.00 -Ne 9.999232 -Nl RTR -Nw --- -Ma 0 -Md ffffffff -Ms 0 -Mt 800 -Is 18.255 -Id -1.255 -It AODV -Il 48 -If 0 -Ii 0 -Iv 29 -P aodv -Pt 0x2 -Ph 2 -Pb 1 -Pd 19 -Pds 0 -Ps 0 -Pss 4 -Pc REQUEST 
r -t 3.502471000 -Hs 18 -Hd -2 -Ni 18 -Nx 0.00 -Ny 0.00 -Nz 0.00 -Ne 9.999232 -Nl MAC -Nw --- -Ma 0 -Md ffffffff -Ms 13 -Mt 806 -P arp -Po REQUEST -Pms 19 -Ps 19 -Pmd 0 -Pd 0 
r -t 3.502471000 -Hs 17 -Hd -2 -Ni 17 -Nx 0.00 -Ny 0.00 -Nz 0.00 -Ne 9.999232 -Nl MAC -Nw --- -Ma 0 -Md ffffffff -Ms 13 -Mt 806 -P arp -Po REQUEST -Pms 19 -Ps 19 -Pmd 0 -Pd 0 
r -t 3.502471000 -Hs 16 -Hd -2 -Ni 16 -Nx 0.00 -Ny 0.00 -Nz 0.00 -Ne 9.999232 -Nl MAC -Nw --- -Ma 0 -Md ffffffff -Ms 13 -Mt 806 -P arp -Po REQUEST -Pms 19 -Ps 19 -Pmd 0 -Pd 0 
r -t 3.502471000 -Hs 15 -Hd -2 -Ni 15 -Nx 0.00 -Ny 0.00 -Nz 0.00 -Ne 9.999232 -Nl MAC -Nw --- -Ma 0 -Md ffffffff -Ms 13 -Mt 806 -P arp -Po REQUEST -Pms 19 -Ps 19 -Pmd 0 -Pd 0 
r -t 3.502471000 -Hs 14 -Hd -2 -Ni 14 -Nx 0.00 -Ny 0.00 -Nz 0.00 -Ne 9.999232 -Nl MAC -Nw --- -Ma 0 -Md ffffffff -Ms 13 -Mt 806 -P arp -Po REQUEST -Pms 19 -Ps 19 -Pmd 0 -Pd 0 
r -t 3.502471000 -Hs 13 -Hd -2 -Ni 13 -Nx 0.00 -Ny 0.00 -Nz 0.00 -Ne 9.999232 -Nl MAC -Nw --- -Ma 0 -Md ffffffff -Ms 13 -Mt 806 -P arp -Po REQUEST -Pms 19 -Ps 19 -Pmd 0 -Pd 0 
r -t 3.502471000 -Hs 12 -Hd -2 -Ni 12 -Nx 0.00 -Ny 0.00 -Nz 0.00 -Ne 9.999232 -Nl MAC -Nw --- -Ma 0 -Md ffffffff -Ms 13 -Mt 806 -P arp -Po REQUEST -Pms 19 -Ps 19 -Pmd 0 -Pd 0 
r -t 3.502471000 -Hs 11 -Hd -2 -Ni 11 -Nx 0.00 -Ny 0.00 -Nz 0.00 -Ne 9.999232 -Nl MAC -Nw --- -Ma 0 -Md ffffffff -Ms 13 -Mt 806 -P arp -Po REQUEST -Pms 19 -Ps 19 -Pmd 0 -Pd 0 
r -t 3.502471000 -Hs 10 -Hd -2 -Ni 10 -Nx 0.00 -Ny 0.00 -Nz 0.00 -Ne 9.999232 -Nl MAC -Nw --- -Ma 0 -Md ffffffff -Ms 13 -Mt 806 -P arp -Po REQUEST -Pms 19 -Ps 19 -Pmd 0 -Pd 0 
r -t 3.502471000 -Hs 9 -Hd -2 -Ni 9 -Nx 0.00 -Ny 0.00 -Nz 0.00 -Ne 9.999232 -Nl MAC -Nw --- -Ma 0 -Md ffffffff -Ms 13 -Mt 806 -P arp -Po REQUEST -Pms 19 -Ps 19 -Pmd 0 -Pd 0 
r -t 3.502471000 -Hs 8 -Hd -2 -Ni 8 -Nx 0.00 -Ny 0.00 -Nz 0.00 -Ne 9.999232 -Nl MAC -Nw --- -Ma 0 -Md ffffffff -Ms 13 -Mt 806 -P arp -Po REQUEST -Pms 19 -Ps 19 -Pmd 0 -Pd 0 
r -t 3.502471000 -Hs 7 -Hd -2 -Ni 7 -Nx 0.00 -Ny 0.00 -Nz 0.00 -Ne 9.999232 -Nl MAC -Nw --- -Ma 0 -Md ffffffff -Ms 13 -Mt 806 -P arp -Po REQUEST -Pms 19 -Ps 19 -Pmd 0 -Pd 0 
r -t 3.502471000 -Hs 6 -Hd -2 -Ni 6 -Nx 0.00 -Ny 0.00 -Nz 0.00 -Ne 9.999232 -Nl MAC -Nw --- -Ma 0 -Md ffffffff -Ms 13 -Mt 806 -P arp -Po REQUEST -Pms 19 -Ps 19 -Pmd 0 -Pd 0 
r -t 3.502471000 -Hs 5 -Hd -2 -Ni 5 -Nx 0.00 -Ny 0.00 -Nz 0.00 -Ne 9.999232 -Nl MAC -Nw --- -Ma 0 -Md ffffffff -Ms 13 -Mt 806 -P arp -Po REQUEST -Pms 19 -Ps 19 -Pmd 0 -Pd 0 
r -t 3.502471000 -Hs 4 -Hd -2 -Ni 4 -Nx 0.00 -Ny 0.00 -Nz 0.00 -Ne 9.999232 -Nl MAC -Nw --- -Ma 0 -Md ffffffff -Ms 13 -Mt 806 -P arp -Po REQUEST -Pms 19 -Ps 19 -Pmd 0 -Pd 0 
r -t 3.502471000 -Hs 3 -Hd -2 -Ni 3 -Nx 0.00 -Ny 0.00 -Nz 0.00 -Ne 9.999232 -Nl MAC -Nw --- -Ma 0 -Md ffffffff -Ms 13 -Mt 806 -P arp -Po REQUEST -Pms 19 -Ps 19 -Pmd 0 -Pd 0 
r -t 3.502471000 -Hs 2 -Hd -2 -Ni 2 -Nx 0.00 -Ny 0.00 -Nz 0.00 -Ne 9.999232 -Nl MAC -Nw --- -Ma 0 -Md ffffffff -Ms 13 -Mt 806 -P arp -Po REQUEST -Pms 19 -Ps 19 -Pmd 0 -Pd 0 
r -t 3.502471000 -Hs 1 -Hd -2 -Ni 1 -Nx 0.00 -Ny 0.00 -Nz 0.00 -Ne 9.999232 -Nl MAC -Nw --- -Ma 0 -Md ffffffff -Ms 13 -Mt 806 -P arp -Po REQUEST -Pms 19 -Ps 19 -Pmd 0 -Pd 0 
r -t 3.502471000 -Hs 0 -Hd -2 -Ni 0 -Nx 0.00 -Ny 0.00 -Nz 0.00 -Ne 9.998808 -Nl MAC -Nw --- -Ma 0 -Md ffffffff -Ms 13 -Mt 806 -P arp -Po REQUEST -Pms 19 -Ps 19 -Pmd 0 -Pd 0 
s -t 3.502541000 -Hs 2 -Hd -2 -Ni 2 -Nx 0.00 -Ny 0.00 -Nz 0.00 -Ne 9.999232 -Nl MAC -Nw --- -Ma 0 -Md ffffffff -Ms 2 -Mt 800 -Is 2.255 -Id -1.255 -It AODV -Il 106 -If 0 -Ii 0 -Iv 29 -P aodv -Pt 0x2 -Ph 2 -Pb 1 -Pd 19 -Pds 0 -Ps 0 -Pss 4 -Pc REQUEST 
N -t 3.502541 -n 1 -e 9.998808
N -t 3.502541 -n 0 -e 9.998384
N -t 3.502541 -n 3 -e 9.998808
N -t 3.502541 -n 4 -e 9.998808
N -t 3.502541 -n 5 -e 9.998808
N -t 3.502541 -n 6 -e 9.998808
N -t 3.502541 -n 7 -e 9.998808
N -t 3.502541 -n 8 -e 9.998808
N -t 3.502541 -n 9 -e 9.998808
N -t 3.502541 -n 10 -e 9.998808
N -t 3.502541 -n 11 -e 9.998808
N -t 3.502541 -n 12 -e 9.998808
N -t 3.502541 -n 13 -e 9.998808
N -t 3.502541 -n 14 -e 9.998808
N -t 3.502541 -n 15 -e 9.998808
N -t 3.502541 -n 16 -e 9.998808
N -t 3.502541 -n 17 -e 9.998808
N -t 3.502541 -n 18 -e 9.998808
N -t 3.502541 -n 19 -e 9.998464
s -t 3.502546082 -Hs 14 -Hd -2 -Ni 14 -Nx 0.00 -Ny 0.00 -Nz 0.00 -Ne 9.998808 -Nl RTR -Nw --- -Ma 0 -Md ffffffff -Ms 0 -Mt 800 -Is 14.255 -Id -1.255 -It AODV -Il 48 -If 0 -Ii 0 -Iv 29 -P aodv -Pt 0x2 -Ph 2 -Pb 1 -Pd 19 -Pds 0 -Ps 0 -Pss 4 -Pc REQUEST 
s -t 3.503049454 -Hs 11 -Hd -2 -Ni 11 -Nx 0.00 -Ny 0.00 -Nz 0.00 -Ne 9.998808 -Nl RTR -Nw --- -Ma 0 -Md ffffffff -Ms 0 -Mt 800 -Is 11.255 -Id -1.255 -It AODV -Il 48 -If 0 -Ii 0 -Iv 29 -P aodv -Pt 0x2 -Ph 2 -Pb 1 -Pd 19 -Pds 0 -Ps 0 -Pss 4 -Pc REQUEST 
s -t 3.503156053 -Hs 17 -Hd -2 -Ni 17 -Nx 0.00 -Ny 0.00 -Nz 0.00 -Ne 9.998808 -Nl RTR -Nw --- -Ma 0 -Md ffffffff -Ms 0 -Mt 800 -Is 17.255 -Id -1.255 -It AODV -Il 48 -If 0 -Ii 0 -Iv 29 -P aodv -Pt 0x2 -Ph 2 -Pb 1 -Pd 19 -Pds 0 -Ps 0 -Pss 4 -Pc REQUEST 
r -t 3.503389000 -Hs 1 -Hd -2 -Ni 1 -Nx 0.00 -Ny 0.00 -Nz 0.00 -Ne 9.998808 -Nl MAC -Nw --- -Ma 0 -Md ffffffff -Ms 2 -Mt 800 -Is 2.255 -Id -1.255 -It AODV -Il 48 -If 0 -Ii 0 -Iv 29 -P aodv -Pt 0x2 -Ph 2 -Pb 1 -Pd 19 -Pds 0 -Ps 0 -Pss 4 -Pc REQUEST 
r -t 3.503389000 -Hs 0 -Hd -2 -Ni 0 -Nx 0.00 -Ny 0.00 -Nz 0.00 -Ne 9.998384 -Nl MAC -Nw --- -Ma 0 -Md ffffffff -Ms 2 -Mt 800 -Is 2.255 -Id -1.255 -It AODV -Il 48 -If 0 -Ii 0 -Iv 29 -P aodv -Pt 0x2 -Ph 2 -Pb 1 -Pd 19 -Pds 0 -Ps 0 -Pss 4 -Pc REQUEST 
r -t 3.503389000 -Hs 3 -Hd -2 -Ni 3 -Nx 0.00 -Ny 0.00 -Nz 0.00 -Ne 9.998808 -Nl MAC -Nw --- -Ma 0 -Md ffffffff -Ms 2 -Mt 800 -Is 2.255 -Id -1.255 -It AODV -Il 48 -If 0 -Ii 0 -Iv 29 -P aodv -Pt 0x2 -Ph 2 -Pb 1 -Pd 19 -Pds 0 -Ps 0 -Pss 4 -Pc REQUEST 
r -t 3.503389000 -Hs 4 -Hd -2 -Ni 4 -Nx 0.00 -Ny 0.00 -Nz 0.00 -Ne 9.998808 -Nl MAC -Nw --- -Ma 0 -Md ffffffff -Ms 2 -Mt 800 -Is 2.255 -Id -1.255 -It AODV -Il 48 -If 0 -Ii 0 -Iv 29 -P aodv -Pt 0x2 -Ph 2 -Pb 1 -Pd 19 -Pds 0 -Ps 0 -Pss 4 -Pc REQUEST 
r -t 3.503389000 -Hs 5 -Hd -2 -Ni 5 -Nx 0.00 -Ny 0.00 -Nz 0.00 -Ne 9.998808 -Nl MAC -Nw --- -Ma 0 -Md ffffffff -Ms 2 -Mt 800 -Is 2.255 -Id -1.255 -It AODV -Il 48 -If 0 -Ii 0 -Iv 29 -P aodv -Pt 0x2 -Ph 2 -Pb 1 -Pd 19 -Pds 0 -Ps 0 -Pss 4 -Pc REQUEST 
r -t 3.503389000 -Hs 6 -Hd -2 -Ni 6 -Nx 0.00 -Ny 0.00 -Nz 0.00 -Ne 9.998808 -Nl MAC -Nw --- -Ma 0 -Md ffffffff -Ms 2 -Mt 800 -Is 2.255 -Id -1.255 -It AODV -Il 48 -If 0 -Ii 0 -Iv 29 -P aodv -Pt 0x2 -Ph 2 -Pb 1 -Pd 19 -Pds 0 -Ps 0 -Pss 4 -Pc REQUEST 
r -t 3.503389000 -Hs 7 -Hd -2 -Ni 7 -Nx 0.00 -Ny 0.00 -Nz 0.00 -Ne 9.998808 -Nl MAC -Nw --- -Ma 0 -Md ffffffff -Ms 2 -Mt 800 -Is 2.255 -Id -1.255 -It AODV -Il 48 -If 0 -Ii 0 -Iv 29 -P aodv -Pt 0x2 -Ph 2 -Pb 1 -Pd 19 -Pds 0 -Ps 0 -Pss 4 -Pc REQUEST 
r -t 3.503389000 -Hs 8 -Hd -2 -Ni 8 -Nx 0.00 -Ny 0.00 -Nz 0.00 -Ne 9.998808 -Nl MAC -Nw --- -Ma 0 -Md ffffffff -Ms 2 -Mt 800 -Is 2.255 -Id -1.255 -It AODV -Il 48 -If 0 -Ii 0 -Iv 29 -P aodv -Pt 0x2 -Ph 2 -Pb 1 -Pd 19 -Pds 0 -Ps 0 -Pss 4 -Pc REQUEST 
r -t 3.503389000 -Hs 9 -Hd -2 -Ni 9 -Nx 0.00 -Ny 0.00 -Nz 0.00 -Ne 9.998808 -Nl MAC -Nw --- -Ma 0 -Md ffffffff -Ms 2 -Mt 800 -Is 2.255 -Id -1.255 -It AODV -Il 48 -If 0 -Ii 0 -Iv 29 -P aodv -Pt 0x2 -Ph 2 -Pb 1 -Pd 19 -Pds 0 -Ps 0 -Pss 4 -Pc REQUEST 
r -t 3.503389000 -Hs 10 -Hd -2 -Ni 10 -Nx 0.00 -Ny 0.00 -Nz 0.00 -Ne 9.998808 -Nl MAC -Nw --- -Ma 0 -Md ffffffff -Ms 2 -Mt 800 -Is 2.255 -Id -1.255 -It AODV -Il 48 -If 0 -Ii 0 -Iv 29 -P aodv -Pt 0x2 -Ph 2 -Pb 1 -Pd 19 -Pds 0 -Ps 0 -Pss 4 -Pc REQUEST 
r -t 3.503389000 -Hs 11 -Hd -2 -Ni 11 -Nx 0.00 -Ny 0.00 -Nz 0.00 -Ne 9.998808 -Nl MAC -Nw --- -Ma 0 -Md ffffffff -Ms 2 -Mt 800 -Is 2.255 -Id -1.255 -It AODV -Il 48 -If 0 -Ii 0 -Iv 29 -P aodv -Pt 0x2 -Ph 2 -Pb 1 -Pd 19 -Pds 0 -Ps 0 -Pss 4 -Pc REQUEST 
r -t 3.503389000 -Hs 12 -Hd -2 -Ni 12 -Nx 0.00 -Ny 0.00 -Nz 0.00 -Ne 9.998808 -Nl MAC -Nw --- -Ma 0 -Md ffffffff -Ms 2 -Mt 800 -Is 2.255 -Id -1.255 -It AODV -Il 48 -If 0 -Ii 0 -Iv 29 -P aodv -Pt 0x2 -Ph 2 -Pb 1 -Pd 19 -Pds 0 -Ps 0 -Pss 4 -Pc REQUEST 
r -t 3.503389000 -Hs 13 -Hd -2 -Ni 13 -Nx 0.00 -Ny 0.00 -Nz 0.00 -Ne 9.998808 -Nl MAC -Nw --- -Ma 0 -Md ffffffff -Ms 2 -Mt 800 -Is 2.255 -Id -1.255 -It AODV -Il 48 -If 0 -Ii 0 -Iv 29 -P aodv -Pt 0x2 -Ph 2 -Pb 1 -Pd 19 -Pds 0 -Ps 0 -Pss 4 -Pc REQUEST 
r -t 3.503389000 -Hs 14 -Hd -2 -Ni 14 -Nx 0.00 -Ny 0.00 -Nz 0.00 -Ne 9.998808 -Nl MAC -Nw --- -Ma 0 -Md ffffffff -Ms 2 -Mt 800 -Is 2.255 -Id -1.255 -It AODV -Il 48 -If 0 -Ii 0 -Iv 29 -P aodv -Pt 0x2 -Ph 2 -Pb 1 -Pd 19 -Pds 0 -Ps 0 -Pss 4 -Pc REQUEST 
r -t 3.503389000 -Hs 15 -Hd -2 -Ni 15 -Nx 0.00 -Ny 0.00 -Nz 0.00 -Ne 9.998808 -Nl MAC -Nw --- -Ma 0 -Md ffffffff -Ms 2 -Mt 800 -Is 2.255 -Id -1.255 -It AODV -Il 48 -If 0 -Ii 0 -Iv 29 -P aodv -Pt 0x2 -Ph 2 -Pb 1 -Pd 19 -Pds 0 -Ps 0 -Pss 4 -Pc REQUEST 
r -t 3.503389000 -Hs 16 -Hd -2 -Ni 16 -Nx 0.00 -Ny 0.00 -Nz 0.00 -Ne 9.998808 -Nl MAC -Nw --- -Ma 0 -Md ffffffff -Ms 2 -Mt 800 -Is 2.255 -Id -1.255 -It AODV -Il 48 -If 0 -Ii 0 -Iv 29 -P aodv -Pt 0x2 -Ph 2 -Pb 1 -Pd 19 -Pds 0 -Ps 0 -Pss 4 -Pc REQUEST 
r -t 3.503389000 -Hs 17 -Hd -2 -Ni 17 -Nx 0.00 -Ny 0.00 -Nz 0.00 -Ne 9.998808 -Nl MAC -Nw --- -Ma 0 -Md ffffffff -Ms 2 -Mt 800 -Is 2.255 -Id -1.255 -It AODV -Il 48 -If 0 -Ii 0 -Iv 29 -P aodv -Pt 0x2 -Ph 2 -Pb 1 -Pd 19 -Pds 0 -Ps 0 -Pss 4 -Pc REQUEST 
r -t 3.503389000 -Hs 18 -Hd -2 -Ni 18 -Nx 0.00 -Ny 0.00 -Nz 0.00 -Ne 9.998808 -Nl MAC -Nw --- -Ma 0 -Md ffffffff -Ms 2 -Mt 800 -Is 2.255 -Id -1.255 -It AODV -Il 48 -If 0 -Ii 0 -Iv 29 -P aodv -Pt 0x2 -Ph 2 -Pb 1 -Pd 19 -Pds 0 -Ps 0 -Pss 4 -Pc REQUEST 
r -t 3.503389000 -Hs 19 -Hd -2 -Ni 19 -Nx 0.00 -Ny 0.00 -Nz 0.00 -Ne 9.998464 -Nl MAC -Nw --- -Ma 0 -Md ffffffff -Ms 2 -Mt 800 -Is 2.255 -Id -1.255 -It AODV -Il 48 -If 0 -Ii 0 -Iv 29 -P aodv -Pt 0x2 -Ph 2 -Pb 1 -Pd 19 -Pds 0 -Ps 0 -Pss 4 -Pc REQUEST 
r -t 3.503414000 -Hs 1 -Hd -2 -Ni 1 -Nx 0.00 -Ny 0.00 -Nz 0.00 -Ne 9.998808 -Nl RTR -Nw --- -Ma 0 -Md ffffffff -Ms 2 -Mt 800 -Is 2.255 -Id -1.255 -It AODV -Il 48 -If 0 -Ii 0 -Iv 29 -P aodv -Pt 0x2 -Ph 2 -Pb 1 -Pd 19 -Pds 0 -Ps 0 -Pss 4 -Pc REQUEST 
r -t 3.503414000 -Hs 0 -Hd -2 -Ni 0 -Nx 0.00 -Ny 0.00 -Nz 0.00 -Ne 9.998384 -Nl RTR -Nw --- -Ma 0 -Md ffffffff -Ms 2 -Mt 800 -Is 2.255 -Id -1.255 -It AODV -Il 48 -If 0 -Ii 0 -Iv 29 -P aodv -Pt 0x2 -Ph 2 -Pb 1 -Pd 19 -Pds 0 -Ps 0 -Pss 4 -Pc REQUEST 
r -t 3.503414000 -Hs 3 -Hd -2 -Ni 3 -Nx 0.00 -Ny 0.00 -Nz 0.00 -Ne 9.998808 -Nl RTR -Nw --- -Ma 0 -Md ffffffff -Ms 2 -Mt 800 -Is 2.255 -Id -1.255 -It AODV -Il 48 -If 0 -Ii 0 -Iv 29 -P aodv -Pt 0x2 -Ph 2 -Pb 1 -Pd 19 -Pds 0 -Ps 0 -Pss 4 -Pc REQUEST 
r -t 3.503414000 -Hs 4 -Hd -2 -Ni 4 -Nx 0.00 -Ny 0.00 -Nz 0.00 -Ne 9.998808 -Nl RTR -Nw --- -Ma 0 -Md ffffffff -Ms 2 -Mt 800 -Is 2.255 -Id -1.255 -It AODV -Il 48 -If 0 -Ii 0 -Iv 29 -P aodv -Pt 0x2 -Ph 2 -Pb 1 -Pd 19 -Pds 0 -Ps 0 -Pss 4 -Pc REQUEST 
r -t 3.503414000 -Hs 5 -Hd -2 -Ni 5 -Nx 0.00 -Ny 0.00 -Nz 0.00 -Ne 9.998808 -Nl RTR -Nw --- -Ma 0 -Md ffffffff -Ms 2 -Mt 800 -Is 2.255 -Id -1.255 -It AODV -Il 48 -If 0 -Ii 0 -Iv 29 -P aodv -Pt 0x2 -Ph 2 -Pb 1 -Pd 19 -Pds 0 -Ps 0 -Pss 4 -Pc REQUEST 
r -t 3.503414000 -Hs 6 -Hd -2 -Ni 6 -Nx 0.00 -Ny 0.00 -Nz 0.00 -Ne 9.998808 -Nl RTR -Nw --- -Ma 0 -Md ffffffff -Ms 2 -Mt 800 -Is 2.255 -Id -1.255 -It AODV -Il 48 -If 0 -Ii 0 -Iv 29 -P aodv -Pt 0x2 -Ph 2 -Pb 1 -Pd 19 -Pds 0 -Ps 0 -Pss 4 -Pc REQUEST 
r -t 3.503414000 -Hs 7 -Hd -2 -Ni 7 -Nx 0.00 -Ny 0.00 -Nz 0.00 -Ne 9.998808 -Nl RTR -Nw --- -Ma 0 -Md ffffffff -Ms 2 -Mt 800 -Is 2.255 -Id -1.255 -It AODV -Il 48 -If 0 -Ii 0 -Iv 29 -P aodv -Pt 0x2 -Ph 2 -Pb 1 -Pd 19 -Pds 0 -Ps 0 -Pss 4 -Pc REQUEST 
r -t 3.503414000 -Hs 8 -Hd -2 -Ni 8 -Nx 0.00 -Ny 0.00 -Nz 0.00 -Ne 9.998808 -Nl RTR -Nw --- -Ma 0 -Md ffffffff -Ms 2 -Mt 800 -Is 2.255 -Id -1.255 -It AODV -Il 48 -If 0 -Ii 0 -Iv 29 -P aodv -Pt 0x2 -Ph 2 -Pb 1 -Pd 19 -Pds 0 -Ps 0 -Pss 4 -Pc REQUEST 
r -t 3.503414000 -Hs 9 -Hd -2 -Ni 9 -Nx 0.00 -Ny 0.00 -Nz 0.00 -Ne 9.998808 -Nl RTR -Nw --- -Ma 0 -Md ffffffff -Ms 2 -Mt 800 -Is 2.255 -Id -1.255 -It AODV -Il 48 -If 0 -Ii 0 -Iv 29 -P aodv -Pt 0x2 -Ph 2 -Pb 1 -Pd 19 -Pds 0 -Ps 0 -Pss 4 -Pc REQUEST 
r -t 3.503414000 -Hs 10 -Hd -2 -Ni 10 -Nx 0.00 -Ny 0.00 -Nz 0.00 -Ne 9.998808 -Nl RTR -Nw --- -Ma 0 -Md ffffffff -Ms 2 -Mt 800 -Is 2.255 -Id -1.255 -It AODV -Il 48 -If 0 -Ii 0 -Iv 29 -P aodv -Pt 0x2 -Ph 2 -Pb 1 -Pd 19 -Pds 0 -Ps 0 -Pss 4 -Pc REQUEST 
r -t 3.503414000 -Hs 11 -Hd -2 -Ni 11 -Nx 0.00 -Ny 0.00 -Nz 0.00 -Ne 9.998808 -Nl RTR -Nw --- -Ma 0 -Md ffffffff -Ms 2 -Mt 800 -Is 2.255 -Id -1.255 -It AODV -Il 48 -If 0 -Ii 0 -Iv 29 -P aodv -Pt 0x2 -Ph 2 -Pb 1 -Pd 19 -Pds 0 -Ps 0 -Pss 4 -Pc REQUEST 
r -t 3.503414000 -Hs 12 -Hd -2 -Ni 12 -Nx 0.00 -Ny 0.00 -Nz 0.00 -Ne 9.998808 -Nl RTR -Nw --- -Ma 0 -Md ffffffff -Ms 2 -Mt 800 -Is 2.255 -Id -1.255 -It AODV -Il 48 -If 0 -Ii 0 -Iv 29 -P aodv -Pt 0x2 -Ph 2 -Pb 1 -Pd 19 -Pds 0 -Ps 0 -Pss 4 -Pc REQUEST 
r -t 3.503414000 -Hs 13 -Hd -2 -Ni 13 -Nx 0.00 -Ny 0.00 -Nz 0.00 -Ne 9.998808 -Nl RTR -Nw --- -Ma 0 -Md ffffffff -Ms 2 -Mt 800 -Is 2.255 -Id -1.255 -It AODV -Il 48 -If 0 -Ii 0 -Iv 29 -P aodv -Pt 0x2 -Ph 2 -Pb 1 -Pd 19 -Pds 0 -Ps 0 -Pss 4 -Pc REQUEST 
r -t 3.503414000 -Hs 14 -Hd -2 -Ni 14 -Nx 0.00 -Ny 0.00 -Nz 0.00 -Ne 9.998808 -Nl RTR -Nw --- -Ma 0 -Md ffffffff -Ms 2 -Mt 800 -Is 2.255 -Id -1.255 -It AODV -Il 48 -If 0 -Ii 0 -Iv 29 -P aodv -Pt 0x2 -Ph 2 -Pb 1 -Pd 19 -Pds 0 -Ps 0 -Pss 4 -Pc REQUEST 
r -t 3.503414000 -Hs 15 -Hd -2 -Ni 15 -Nx 0.00 -Ny 0.00 -Nz 0.00 -Ne 9.998808 -Nl RTR -Nw --- -Ma 0 -Md ffffffff -Ms 2 -Mt 800 -Is 2.255 -Id -1.255 -It AODV -Il 48 -If 0 -Ii 0 -Iv 29 -P aodv -Pt 0x2 -Ph 2 -Pb 1 -Pd 19 -Pds 0 -Ps 0 -Pss 4 -Pc REQUEST 
r -t 3.503414000 -Hs 16 -Hd -2 -Ni 16 -Nx 0.00 -Ny 0.00 -Nz 0.00 -Ne 9.998808 -Nl RTR -Nw --- -Ma 0 -Md ffffffff -Ms 2 -Mt 800 -Is 2.255 -Id -1.255 -It AODV -Il 48 -If 0 -Ii 0 -Iv 29 -P aodv -Pt 0x2 -Ph 2 -Pb 1 -Pd 19 -Pds 0 -Ps 0 -Pss 4 -Pc REQUEST 
r -t 3.503414000 -Hs 17 -Hd -2 -Ni 17 -Nx 0.00 -Ny 0.00 -Nz 0.00 -Ne 9.998808 -Nl RTR -Nw --- -Ma 0 -Md ffffffff -Ms 2 -Mt 800 -Is 2.255 -Id -1.255 -It AODV -Il 48 -If 0 -Ii 0 -Iv 29 -P aodv -Pt 0x2 -Ph 2 -Pb 1 -Pd 19 -Pds 0 -Ps 0 -Pss 4 -Pc REQUEST 
r -t 3.503414000 -Hs 18 -Hd -2 -Ni 18 -Nx 0.00 -Ny 0.00 -Nz 0.00 -Ne 9.998808 -Nl RTR -Nw --- -Ma 0 -Md ffffffff -Ms 2 -Mt 800 -Is 2.255 -Id -1.255 -It AODV -Il 48 -If 0 -Ii 0 -Iv 29 -P aodv -Pt 0x2 -Ph 2 -Pb 1 -Pd 19 -Pds 0 -Ps 0 -Pss 4 -Pc REQUEST 
r -t 3.503414000 -Hs 19 -Hd -2 -Ni 19 -Nx 0.00 -Ny 0.00 -Nz 0.00 -Ne 9.998464 -Nl RTR -Nw --- -Ma 0 -Md ffffffff -Ms 2 -Mt 800 -Is 2.255 -Id -1.255 -It AODV -Il 48 -If 0 -Ii 0 -Iv 29 -P aodv -Pt 0x2 -Ph 2 -Pb 1 -Pd 19 -Pds 0 -Ps 0 -Pss 4 -Pc REQUEST 
s -t 3.503479000 -Hs 1 -Hd -2 -Ni 1 -Nx 0.00 -Ny 0.00 -Nz 0.00 -Ne 9.998808 -Nl MAC -Nw --- -Ma 0 -Md ffffffff -Ms 1 -Mt 800 -Is 1.255 -Id -1.255 -It AODV -Il 106 -If 0 -Ii 0 -Iv 29 -P aodv -Pt 0x2 -Ph 2 -Pb 1 -Pd 19 -Pds 0 -Ps 0 -Pss 4 -Pc REQUEST 
N -t 3.503479 -n 0 -e 9.997960
N -t 3.503479 -n 2 -e 9.997960
N -t 3.503479 -n 3 -e 9.998384
N -t 3.503479 -n 4 -e 9.998384
N -t 3.503479 -n 5 -e 9.998384
N -t 3.503479 -n 6 -e 9.998384
N -t 3.503479 -n 7 -e 9.998384
N -t 3.503479 -n 8 -e 9.998384
N -t 3.503479 -n 9 -e 9.998384
N -t 3.503479 -n 10 -e 9.998384
N -t 3.503479 -n 11 -e 9.998384
N -t 3.503479 -n 12 -e 9.998384
N -t 3.503479 -n 13 -e 9.998384
N -t 3.503479 -n 14 -e 9.998384
N -t 3.503479 -n 15 -e 9.998384
N -t 3.503479 -n 16 -e 9.998384
N -t 3.503479 -n 17 -e 9.998384
N -t 3.503479 -n 18 -e 9.998384
N -t 3.503479 -n 19 -e 9.998040
s -t 3.503754018 -Hs 7 -Hd -2 -Ni 7 -Nx 0.00 -Ny 0.00 -Nz 0.00 -Ne 9.998384 -Nl RTR -Nw --- -Ma 0 -Md ffffffff -Ms 0 -Mt 800 -Is 7.255 -Id -1.255 -It AODV -Il 48 -If 0 -Ii 0 -Iv 29 -P aodv -Pt 0x2 -Ph 2 -Pb 1 -Pd 19 -Pds 0 -Ps 0 -Pss 4 -Pc REQUEST 
r -t 3.504327000 -Hs 0 -Hd -2 -Ni 0 -Nx 0.00 -Ny 0.00 -Nz 0.00 -Ne 9.997960 -Nl MAC -Nw --- -Ma 0 -Md ffffffff -Ms 1 -Mt 800 -Is 1.255 -Id -1.255 -It AODV -Il 48 -If 0 -Ii 0 -Iv 29 -P aodv -Pt 0x2 -Ph 2 -Pb 1 -Pd 19 -Pds 0 -Ps 0 -Pss 4 -Pc REQUEST 
r -t 3.504327000 -Hs 2 -Hd -2 -Ni 2 -Nx 0.00 -Ny 0.00 -Nz 0.00 -Ne 9.997960 -Nl MAC -Nw --- -Ma 0 -Md ffffffff -Ms 1 -Mt 800 -Is 1.255 -Id -1.255 -It AODV -Il 48 -If 0 -Ii 0 -Iv 29 -P aodv -Pt 0x2 -Ph 2 -Pb 1 -Pd 19 -Pds 0 -Ps 0 -Pss 4 -Pc REQUEST 
r -t 3.504327000 -Hs 3 -Hd -2 -Ni 3 -Nx 0.00 -Ny 0.00 -Nz 0.00 -Ne 9.998384 -Nl MAC -Nw --- -Ma 0 -Md ffffffff -Ms 1 -Mt 800 -Is 1.255 -Id -1.255 -It AODV -Il 48 -If 0 -Ii 0 -Iv 29 -P aodv -Pt 0x2 -Ph 2 -Pb 1 -Pd 19 -Pds 0 -Ps 0 -Pss 4 -Pc REQUEST 
r -t 3.504327000 -Hs 4 -Hd -2 -Ni 4 -Nx 0.00 -Ny 0.00 -Nz 0.00 -Ne 9.998384 -Nl MAC -Nw --- -Ma 0 -Md ffffffff -Ms 1 -Mt 800 -Is 1.255 -Id -1.255 -It AODV -Il 48 -If 0 -Ii 0 -Iv 29 -P aodv -Pt 0x2 -Ph 2 -Pb 1 -Pd 19 -Pds 0 -Ps 0 -Pss 4 -Pc REQUEST 
r -t 3.504327000 -Hs 5 -Hd -2 -Ni 5 -Nx 0.00 -Ny 0.00 -Nz 0.00 -Ne 9.998384 -Nl MAC -Nw --- -Ma 0 -Md ffffffff -Ms 1 -Mt 800 -Is 1.255 -Id -1.255 -It AODV -Il 48 -If 0 -Ii 0 -Iv 29 -P aodv -Pt 0x2 -Ph 2 -Pb 1 -Pd 19 -Pds 0 -Ps 0 -Pss 4 -Pc REQUEST 